 Entering Gaussian System, Link 0=g09
 Input=h2o.inp
 Output=h2o.log
 Initial command:
 /tcghome/ygeorgi/fock/g09/l1.exe "/s1/kecelim/Gau-30321.inp" -scrdir="/s1/kecelim/"
 Entering Link 1 = /tcghome/ygeorgi/fock/g09/l1.exe PID=     30324.
  
 Copyright (c) 1988,1990,1992,1993,1995,1998,2003,2009,2013,
            Gaussian, Inc.  All Rights Reserved.
  
 This is part of the Gaussian(R) 09 program.  It is based on
 the Gaussian(R) 03 system (copyright 2003, Gaussian, Inc.),
 the Gaussian(R) 98 system (copyright 1998, Gaussian, Inc.),
 the Gaussian(R) 94 system (copyright 1995, Gaussian, Inc.),
 the Gaussian 92(TM) system (copyright 1992, Gaussian, Inc.),
 the Gaussian 90(TM) system (copyright 1990, Gaussian, Inc.),
 the Gaussian 88(TM) system (copyright 1988, Gaussian, Inc.),
 the Gaussian 86(TM) system (copyright 1986, Carnegie Mellon
 University), and the Gaussian 82(TM) system (copyright 1983,
 Carnegie Mellon University). Gaussian is a federally registered
 trademark of Gaussian, Inc.
  
 This software contains proprietary and confidential information,
 including trade secrets, belonging to Gaussian, Inc.
  
 This software is provided under written license and may be
 used, copied, transmitted, or stored only in accord with that
 written license.
  
 The following legend is applicable only to US Government
 contracts under FAR:
  
                    RESTRICTED RIGHTS LEGEND
  
 Use, reproduction and disclosure by the US Government is
 subject to restrictions as set forth in subparagraphs (a)
 and (c) of the Commercial Computer Software - Restricted
 Rights clause in FAR 52.227-19.
  
 Gaussian, Inc.
 340 Quinnipiac St., Bldg. 40, Wallingford CT 06492
  
  
 ---------------------------------------------------------------
 Warning -- This program may not be used in any manner that
 competes with the business of Gaussian, Inc. or will provide
 assistance to any competitor of Gaussian, Inc.  The licensee
 of this program is prohibited from giving any competitor of
 Gaussian, Inc. access to this program.  By using this program,
 the user acknowledges that Gaussian, Inc. is engaged in the
 business of creating and licensing software in the field of
 computational chemistry and represents and warrants to the
 licensee that it is not a competitor of Gaussian, Inc. and that
 it will not use this program in any manner prohibited above.
 ---------------------------------------------------------------
  

 Cite this work as:
 Gaussian 09, Revision D.01,
 M. J. Frisch, G. W. Trucks, H. B. Schlegel, G. E. Scuseria, 
 M. A. Robb, J. R. Cheeseman, G. Scalmani, V. Barone, B. Mennucci, 
 G. A. Petersson, H. Nakatsuji, M. Caricato, X. Li, H. P. Hratchian, 
 A. F. Izmaylov, J. Bloino, G. Zheng, J. L. Sonnenberg, M. Hada, 
 M. Ehara, K. Toyota, R. Fukuda, J. Hasegawa, M. Ishida, T. Nakajima, 
 Y. Honda, O. Kitao, H. Nakai, T. Vreven, J. A. Montgomery, Jr., 
 J. E. Peralta, F. Ogliaro, M. Bearpark, J. J. Heyd, E. Brothers, 
 K. N. Kudin, V. N. Staroverov, T. Keith, R. Kobayashi, J. Normand, 
 K. Raghavachari, A. Rendell, J. C. Burant, S. S. Iyengar, J. Tomasi, 
 M. Cossi, N. Rega, J. M. Millam, M. Klene, J. E. Knox, J. B. Cross, 
 V. Bakken, C. Adamo, J. Jaramillo, R. Gomperts, R. E. Stratmann, 
 O. Yazyev, A. J. Austin, R. Cammi, C. Pomelli, J. W. Ochterski, 
 R. L. Martin, K. Morokuma, V. G. Zakrzewski, G. A. Voth, 
 P. Salvador, J. J. Dannenberg, S. Dapprich, A. D. Daniels, 
 O. Farkas, J. B. Foresman, J. V. Ortiz, J. Cioslowski, 
 and D. J. Fox, Gaussian, Inc., Wallingford CT, 2013.
 
 ******************************************
 Gaussian 09:  EM64L-G09RevD.01 24-Apr-2013
                 8-May-2017 
 ******************************************
 %mem=20GB
 --------------------------------
 #P pm3 opt nosym freq=anharmonic
 --------------------------------
 1/14=-1,18=20,19=15,26=1,38=1,80=1/1,3;
 2/9=110,12=2,15=1,17=6,18=5,40=1/2;
 3/5=2,16=1,25=1,41=800000,71=1/1,2,3;
 4/35=1/1;
 5/5=2,35=1,38=5/2;
 6/7=2,8=2,9=2,10=2,28=1/1;
 7/30=1/1,2,3,16;
 1/14=-1,18=20,19=15,26=1,80=1/3(2);
 2/9=110,15=1/2;
 99/8=1000/99;
 2/9=110,15=1/2;
 3/5=2,16=1,25=1,41=800000,71=1,135=20/1,2,3;
 4/5=5,16=3,35=1/1;
 5/5=2,35=1,38=5/2;
 7/30=1/1,2,3,16;
 1/14=-1,18=20,19=15,26=1,80=1/3(-5);
 2/9=110,15=1/2;
 6/7=2,8=2,9=2,10=2,19=2,28=1/1;
 99/8=1000,9=1/99;
 Leave Link    1 at Mon May  8 14:39:45 2017, MaxMem=  2684354560 cpu:         0.0
 (Enter /tcghome/ygeorgi/fock/g09/l101.exe)
 --------
 test pm3
 --------
 Symbolic Z-matrix:
 Charge =  0 Multiplicity = 1
 O                     99.814    100.835   101.232 
 H                     99.3292   99.9768   101.063 
 H                     99.1516   101.561   101.414 
 
 NAtoms=      3 NQM=        3 NQMF=       0 NMMI=      0 NMMIF=      0
                NMic=       0 NMicF=      0.
                    Isotopes and Nuclear Properties:
 (Nuclear quadrupole moments (NQMom) in fm**2, nuclear magnetic moments (NMagM)
  in nuclear magnetons)

  Atom         1           2           3
 IAtWgt=          16           1           1
 AtmWgt=  15.9949146   1.0078250   1.0078250
 NucSpn=           0           1           1
 AtZEff=   0.0000000   0.0000000   0.0000000
 NQMom=    0.0000000   0.0000000   0.0000000
 NMagM=    0.0000000   2.7928460   2.7928460
 AtZNuc=   8.0000000   1.0000000   1.0000000
 Leave Link  101 at Mon May  8 14:39:46 2017, MaxMem=  2684354560 cpu:         0.9
 (Enter /tcghome/ygeorgi/fock/g09/l103.exe)

 GradGradGradGradGradGradGradGradGradGradGradGradGradGradGradGradGradGrad
 Berny optimization.
 Initialization pass.
                           ----------------------------
                           !    Initial Parameters    !
                           ! (Angstroms and Degrees)  !
 --------------------------                            --------------------------
 ! Name  Definition              Value          Derivative Info.                !
 --------------------------------------------------------------------------------
 ! R1    R(1,2)                  1.0            estimate D2E/DX2                !
 ! R2    R(1,3)                  0.9995         estimate D2E/DX2                !
 ! A1    A(2,1,3)              109.4409         estimate D2E/DX2                !
 --------------------------------------------------------------------------------
 Trust Radius=3.00D-01 FncErr=1.00D-07 GrdErr=1.00D-07
 Number of steps in this run=     20 maximum allowed number of steps=    100.
 GradGradGradGradGradGradGradGradGradGradGradGradGradGradGradGradGradGrad

 Leave Link  103 at Mon May  8 14:39:46 2017, MaxMem=  2684354560 cpu:         0.0
 (Enter /tcghome/ygeorgi/fock/g09/l202.exe)
                          Input orientation:                          
 ---------------------------------------------------------------------
 Center     Atomic      Atomic             Coordinates (Angstroms)
 Number     Number       Type             X           Y           Z
 ---------------------------------------------------------------------
      1          8           0       99.814000  100.835000  101.232000
      2          1           0       99.329200   99.976800  101.063000
      3          1           0       99.151600  101.561000  101.414000
 ---------------------------------------------------------------------
                    Distance matrix (angstroms):
                    1          2          3
     1  O    0.000000
     2  H    1.000050   0.000000
     3  H    0.999487   1.632309   0.000000
 Symmetry turned off by external request.
 Stoichiometry    H2O
 Framework group  CS[SG(H2O)]
 Deg. of freedom     3
 Full point group                 CS      NOp   2
 Rotational constants (GHZ):    846.7303463    376.4065902    260.5717095
 Leave Link  202 at Mon May  8 14:39:46 2017, MaxMem=  2684354560 cpu:         0.0
 (Enter /tcghome/ygeorgi/fock/g09/l301.exe)
 Standard basis: VSTO-6G (5D, 7F)
 Ernie: Thresh=  0.10000D-02 Tol=  0.10000D-05 Strict=F.
  NNHCO=     0 NNPyr=     0 NCTC=     0               EPep=         0.000000000
    EC=         4.897629775  ECS=         0.348670280   EG=         0.054747162
   EHC=         0.000000000  EAt=       -11.594002353  AtH=         0.260972954
 EPDDG=         0.000000000  ECC=         5.301047217 EAtT=        11.854975307
     6 basis functions,    36 primitive gaussians,     6 cartesian basis functions
     4 alpha electrons        4 beta electrons
       nuclear repulsion energy        17.1560225242 Hartrees.
 IExCor=    0 DFT=F Ex=HF Corr=None ExCW=0 ScaHFX=  1.000000
 ScaDFX=  1.000000  1.000000  1.000000  1.000000 ScalE2=  1.000000  1.000000
 IRadAn=      0 IRanWt=     -1 IRanGd=            0 ICorTp=0 IEmpDi=  4
 Integral buffers will be    131072 words long.
 Regular integral format.
 Two-electron integral symmetry is turned off.
 Leave Link  301 at Mon May  8 14:39:46 2017, MaxMem=  2684354560 cpu:         0.1
 (Enter /tcghome/ygeorgi/fock/g09/l302.exe)
 Do NDO integrals.
 NPDir=0 NMtPBC=     1 NCelOv=     1 NCel=       1 NClECP=     1 NCelD=      1
         NCelK=      1 NCelE2=     1 NClLst=     1 CellRange=     0.0.
 One-electron integrals computed using PRISM.
 NBasis=     6 RedAO= F EigKep=  0.00D+00  NBF=     6
 NBsUse=     6 1.00D-04 EigRej=  0.00D+00 NBFU=     6
 Leave Link  302 at Mon May  8 14:39:46 2017, MaxMem=  2684354560 cpu:         0.1
 (Enter /tcghome/ygeorgi/fock/g09/l303.exe)
 DipDrv:  MaxL=1.
 Leave Link  303 at Mon May  8 14:39:47 2017, MaxMem=  2684354560 cpu:         0.0
 (Enter /tcghome/ygeorgi/fock/g09/l401.exe)
 Simple Huckel Guess.
 JPrj=0 DoOrth=F DoCkMO=F.
 Leave Link  401 at Mon May  8 14:39:47 2017, MaxMem=  2684354560 cpu:         0.1
 (Enter /tcghome/ygeorgi/fock/g09/l502.exe)
 Closed shell SCF:
 Using DIIS extrapolation, IDIIS=  1040.
 Overlap will be assumed to be unity.
 Two-electron integral symmetry not used.
 Keep J ints in memory in canonical form, NReq=882349.
 IVT=       79022 IEndB=       79022 NGot=  2684354560 MDV=  2684275461
 LenX=  2684275461 LenY=  2684274579
 Requested convergence on RMS density matrix=1.00D-08 within 128 cycles.
 Requested convergence on MAX density matrix=1.00D-06.
 Requested convergence on             energy=1.00D-06.
 No special actions if energy rises.
 FoFCou: FMM=F IPFlag=           0 FMFlag=           0 FMFlg1=           0
         NFxFlg=           0 DoJE=F BraDBF=F KetDBF=F FulRan=T
         wScrn=  0.000000 ICntrl=     600 IOpCl=  2 I1Cent=           0 NGrid=           0
         NMat0=    1 NMatS0=     12 NMatT0=    0 NMatD0=    1 NMtDS0=    0 NMtDT0=    0
 Symmetry not used in FoFCou.

 Cycle   1  Pass 1  IDiag  1:
 E= 0.490017961663334E-01
 DIIS: error= 7.03D-02 at cycle   1 NSaved=   1.
 NSaved= 1 IEnMin= 1 EnMin= 0.490017961663334E-01 IErMin= 1 ErrMin= 7.03D-02
 ErrMax= 7.03D-02  0.00D+00 EMaxC= 1.00D-01 BMatC= 5.24D-02 BMatP= 5.24D-02
 IDIUse=3 WtCom= 2.97D-01 WtEn= 7.03D-01
 Coeff-Com:  0.100D+01
 Coeff-En:   0.100D+01
 Coeff:      0.100D+01
 GapD=    2.000 DampG=2.000 DampE=0.500 DampFc=1.0000 IDamp=-1.
 RMSDP=4.98D-02 MaxDP=1.50D-01              OVMax= 0.00D+00

 Cycle   2  Pass 1  IDiag  1:
 E=-0.671652021298748E-01 Delta-E=       -0.116166998296 Rises=F Damp=F
 DIIS: error= 1.70D-02 at cycle   2 NSaved=   2.
 NSaved= 2 IEnMin= 2 EnMin=-0.671652021298748E-01 IErMin= 2 ErrMin= 1.70D-02
 ErrMax= 1.70D-02  0.00D+00 EMaxC= 1.00D-01 BMatC= 3.43D-03 BMatP= 5.24D-02
 IDIUse=3 WtCom= 8.30D-01 WtEn= 1.70D-01
 Coeff-Com: -0.286D+00 0.129D+01
 Coeff-En:   0.000D+00 0.100D+01
 Coeff:     -0.238D+00 0.124D+01
 RMSDP=2.02D-02 MaxDP=6.10D-02 DE=-1.16D-01 OVMax= 0.00D+00

 Cycle   3  Pass 1  IDiag  3:
 E=-0.788199239839251E-01 Delta-E=       -0.011654721854 Rises=F Damp=F
 DIIS: error= 4.58D-03 at cycle   3 NSaved=   3.
 NSaved= 3 IEnMin= 3 EnMin=-0.788199239839251E-01 IErMin= 3 ErrMin= 4.58D-03
 ErrMax= 4.58D-03  0.00D+00 EMaxC= 1.00D-01 BMatC= 2.13D-04 BMatP= 3.43D-03
 IDIUse=3 WtCom= 9.54D-01 WtEn= 4.58D-02
 Coeff-Com:  0.202D+00-0.103D+01 0.183D+01
 Coeff-En:   0.000D+00 0.000D+00 0.100D+01
 Coeff:      0.193D+00-0.985D+00 0.179D+01
 Gap=     0.578 Goal=   None    Shift=    0.000
 RMSDP=9.33D-03 MaxDP=3.47D-02 DE=-1.17D-02 OVMax= 3.95D-02

 Cycle   4  Pass 1  IDiag  3:
 E=-0.800693822794223E-01 Delta-E=       -0.001249458295 Rises=F Damp=F
 DIIS: error= 4.24D-04 at cycle   4 NSaved=   4.
 NSaved= 4 IEnMin= 4 EnMin=-0.800693822794223E-01 IErMin= 4 ErrMin= 4.24D-04
 ErrMax= 4.24D-04  0.00D+00 EMaxC= 1.00D-01 BMatC= 2.22D-06 BMatP= 2.13D-04
 IDIUse=3 WtCom= 9.96D-01 WtEn= 4.24D-03
 Coeff-Com: -0.917D-02 0.666D-01-0.221D+00 0.116D+01
 Coeff-En:   0.000D+00 0.000D+00 0.000D+00 0.100D+01
 Coeff:     -0.913D-02 0.663D-01-0.220D+00 0.116D+01
 Gap=     0.582 Goal=   None    Shift=    0.000
 RMSDP=8.35D-04 MaxDP=2.92D-03 DE=-1.25D-03 OVMax= 3.19D-03

 Cycle   5  Pass 1  IDiag  3:
 E=-0.800798929902875E-01 Delta-E=       -0.000010510711 Rises=F Damp=F
 DIIS: error= 8.18D-05 at cycle   5 NSaved=   5.
 NSaved= 5 IEnMin= 5 EnMin=-0.800798929902875E-01 IErMin= 5 ErrMin= 8.18D-05
 ErrMax= 8.18D-05  0.00D+00 EMaxC= 1.00D-01 BMatC= 5.86D-08 BMatP= 2.22D-06
 IDIUse=1 WtCom= 1.00D+00 WtEn= 0.00D+00
 Coeff-Com:  0.224D-02-0.256D-01 0.111D+00-0.729D+00 0.164D+01
 Coeff:      0.224D-02-0.256D-01 0.111D+00-0.729D+00 0.164D+01
 Gap=     0.582 Goal=   None    Shift=    0.000
 RMSDP=1.11D-04 MaxDP=4.24D-04 DE=-1.05D-05 OVMax= 4.52D-04

 Cycle   6  Pass 1  IDiag  3:
 E=-0.800801170148269E-01 Delta-E=       -0.000000224025 Rises=F Damp=F
 DIIS: error= 2.26D-06 at cycle   6 NSaved=   6.
 NSaved= 6 IEnMin= 6 EnMin=-0.800801170148269E-01 IErMin= 6 ErrMin= 2.26D-06
 ErrMax= 2.26D-06  0.00D+00 EMaxC= 1.00D-01 BMatC= 6.15D-11 BMatP= 5.86D-08
 IDIUse=1 WtCom= 1.00D+00 WtEn= 0.00D+00
 Coeff-Com: -0.162D-02 0.186D-01-0.801D-01 0.524D+00-0.119D+01 0.173D+01
 Coeff:     -0.162D-02 0.186D-01-0.801D-01 0.524D+00-0.119D+01 0.173D+01
 Gap=     0.582 Goal=   None    Shift=    0.000
 RMSDP=5.09D-06 MaxDP=1.46D-05 DE=-2.24D-07 OVMax= 1.57D-05

 Cycle   7  Pass 1  IDiag  3:
 E=-0.800801172312156E-01 Delta-E=       -0.000000000216 Rises=F Damp=F
 DIIS: error= 8.37D-07 at cycle   7 NSaved=   7.
 NSaved= 7 IEnMin= 7 EnMin=-0.800801172312156E-01 IErMin= 7 ErrMin= 8.37D-07
 ErrMax= 8.37D-07  0.00D+00 EMaxC= 1.00D-01 BMatC= 9.34D-12 BMatP= 6.15D-11
 IDIUse=1 WtCom= 1.00D+00 WtEn= 0.00D+00
 Coeff-Com:  0.640D-03-0.731D-02 0.311D-01-0.204D+00 0.465D+00-0.684D+00
 Coeff-Com:  0.140D+01
 Coeff:      0.640D-03-0.731D-02 0.311D-01-0.204D+00 0.465D+00-0.684D+00
 Coeff:      0.140D+01
 Gap=     0.582 Goal=   None    Shift=    0.000
 RMSDP=2.36D-06 MaxDP=8.41D-06 DE=-2.16D-10 OVMax= 9.60D-06

 Cycle   8  Pass 1  IDiag  3:
 E=-0.800801172653145E-01 Delta-E=       -0.000000000034 Rises=F Damp=F
 DIIS: error= 3.44D-07 at cycle   8 NSaved=   8.
 NSaved= 8 IEnMin= 8 EnMin=-0.800801172653145E-01 IErMin= 8 ErrMin= 3.44D-07
 ErrMax= 3.44D-07  0.00D+00 EMaxC= 1.00D-01 BMatC= 1.49D-12 BMatP= 9.34D-12
 IDIUse=1 WtCom= 1.00D+00 WtEn= 0.00D+00
 Coeff-Com: -0.601D-03 0.687D-02-0.289D-01 0.189D+00-0.436D+00 0.643D+00
 Coeff-Com: -0.141D+01 0.204D+01
 Coeff:     -0.601D-03 0.687D-02-0.289D-01 0.189D+00-0.436D+00 0.643D+00
 Coeff:     -0.141D+01 0.204D+01
 Gap=     0.582 Goal=   None    Shift=    0.000
 RMSDP=1.35D-06 MaxDP=4.92D-06 DE=-3.41D-11 OVMax= 5.52D-06

 Cycle   9  Pass 1  IDiag  3:
 E=-0.800801172658119E-01 Delta-E=        0.000000000000 Rises=F Damp=F
 DIIS: error= 3.31D-07 at cycle   9 NSaved=   9.
 NSaved= 9 IEnMin= 9 EnMin=-0.800801172658119E-01 IErMin= 9 ErrMin= 3.31D-07
 ErrMax= 3.31D-07  0.00D+00 EMaxC= 1.00D-01 BMatC= 1.37D-12 BMatP= 1.49D-12
 IDIUse=1 WtCom= 1.00D+00 WtEn= 0.00D+00
 Coeff-Com:  0.880D-06-0.916D-05-0.108D-03 0.686D-03 0.214D-04-0.241D-02
 Coeff-Com:  0.492D-01-0.426D-01 0.995D+00
 Coeff:      0.880D-06-0.916D-05-0.108D-03 0.686D-03 0.214D-04-0.241D-02
 Coeff:      0.492D-01-0.426D-01 0.995D+00
 Gap=     0.582 Goal=   None    Shift=    0.000
 RMSDP=6.75D-07 MaxDP=2.45D-06 DE=-4.97D-13 OVMax= 2.76D-06

 Cycle  10  Pass 1  IDiag  3:
 E=-0.800801172720398E-01 Delta-E=       -0.000000000006 Rises=F Damp=F
 DIIS: error= 6.56D-09 at cycle  10 NSaved=  10.
 NSaved=10 IEnMin=10 EnMin=-0.800801172720398E-01 IErMin=10 ErrMin= 6.56D-09
 ErrMax= 6.56D-09  0.00D+00 EMaxC= 1.00D-01 BMatC= 3.70D-16 BMatP= 1.37D-12
 IDIUse=1 WtCom= 1.00D+00 WtEn= 0.00D+00
 Large coefficients: NSaved= 10 BigCof=    0.00 CofMax=   10.00 Det=-4.95D-23
 Inversion failed.  Reducing to  9 matrices.
 Large coefficients: NSaved=  9 BigCof=    0.00 CofMax=   10.00 Det=-8.50D-23
 Inversion failed.  Reducing to  8 matrices.
 Coeff-Com:  0.435D-06 0.389D-05-0.446D-04-0.454D-03 0.459D-02 0.261D-01
 Coeff-Com:  0.189D-01 0.951D+00
 Coeff:      0.435D-06 0.389D-05-0.446D-04-0.454D-03 0.459D-02 0.261D-01
 Coeff:      0.189D-01 0.951D+00
 Gap=     0.582 Goal=   None    Shift=    0.000
 RMSDP=1.17D-08 MaxDP=3.86D-08 DE=-6.23D-12 OVMax= 4.45D-08

 Cycle  11  Pass 1  IDiag  3:
 E=-0.800801172720185E-01 Delta-E=        0.000000000000 Rises=F Damp=F
 DIIS: error= 2.13D-11 at cycle  11 NSaved=   9.
 NSaved= 9 IEnMin= 8 EnMin=-0.800801172720398E-01 IErMin= 9 ErrMin= 2.13D-11
 ErrMax= 2.13D-11  0.00D+00 EMaxC= 1.00D-01 BMatC= 5.35D-21 BMatP= 3.70D-16
 IDIUse=1 WtCom= 1.00D+00 WtEn= 0.00D+00
 Large coefficients: NSaved=  9 BigCof=    0.00 CofMax=   10.00 Det=-4.02D-26
 Inversion failed.  Reducing to  8 matrices.
 Large coefficients: NSaved=  8 BigCof=    0.00 CofMax=   10.00 Det=-8.96D-23
 Inversion failed.  Reducing to  7 matrices.
 Coeff-Com: -0.318D-07-0.316D-05 0.449D-04 0.103D-03 0.268D-04 0.579D-02
 Coeff-Com:  0.994D+00
 Coeff:     -0.318D-07-0.316D-05 0.449D-04 0.103D-03 0.268D-04 0.579D-02
 Coeff:      0.994D+00
 Gap=     0.582 Goal=   None    Shift=    0.000
 RMSDP=3.70D-11 MaxDP=1.33D-10 DE= 2.13D-14 OVMax= 1.42D-10

 Cycle  12  Pass 2  IDiag  1:
 SCF Done:  E(RPM3) = -0.800801172720E-01 A.U. after   12 cycles
            NFock= 11  Conv=0.37D-10     -V/T= 0.9862
 KE=-5.801191343455D+00 PE=-2.280077926210D+01 EE= 1.136586796408D+01
 Leave Link  502 at Mon May  8 14:39:47 2017, MaxMem=  2684354560 cpu:         0.1
 (Enter /tcghome/ygeorgi/fock/g09/l601.exe)
 Copying SCF densities to generalized density rwf, IOpCl= 0 IROHF=0.

 **********************************************************************

            Population analysis using the SCF density.

 **********************************************************************

 Alpha  occ. eigenvalues --   -1.31964  -0.63610  -0.52876  -0.45062
 Alpha virt. eigenvalues --    0.13170   0.18600
          Condensed to atoms (all electrons):
               1          2          3
     1  O    6.363496   0.000000   0.000000
     2  H    0.000000   0.818250   0.000000
     3  H    0.000000   0.000000   0.818253
 Mulliken charges:
               1
     1  O   -0.363496
     2  H    0.181750
     3  H    0.181747
 Sum of Mulliken charges =   0.00000
 Mulliken charges with hydrogens summed into heavy atoms:
               1
     1  O    0.000000
 Charge=              0.0000 electrons
 Dipole moment (field-independent basis, Debye):
    X=             -1.7417    Y=             -0.2002    Z=              0.0199  Tot=              1.7533
 N-N= 1.715602252420D+01 E-N=-2.280077926198D+01  KE=-5.801191343455D+00
 Leave Link  601 at Mon May  8 14:39:47 2017, MaxMem=  2684354560 cpu:         0.0
 (Enter /tcghome/ygeorgi/fock/g09/l701.exe)
 Compute integral first derivatives.
 ... and contract with generalized density number  0.
 Leave Link  701 at Mon May  8 14:39:47 2017, MaxMem=  2684354560 cpu:         0.1
 (Enter /tcghome/ygeorgi/fock/g09/l702.exe)
 L702 exits ... SP integral derivatives will be done elsewhere.
 Leave Link  702 at Mon May  8 14:39:47 2017, MaxMem=  2684354560 cpu:         0.0
 (Enter /tcghome/ygeorgi/fock/g09/l703.exe)
 Compute integral first derivatives, UseDBF=F ICtDFT=           0.
 Integral derivatives from FoFJK, PRISM(SPDF).
 Calling FoFJK, ICntrl=      2127 FMM=F ISym2X=0 I1Cent= 0 IOpClX= 0 NMat=1 NMatS=1 NMatT=0.
 FoFJK:  IHMeth= 9 ICntrl=    2127 DoSepK=F KAlg= 0 I1Cent=   0 FoldK=F
 IRaf=         0 NMat=   1 IRICut=       1 DoRegI=T DoRafI=F ISym2E= 0.
 FoFCou: FMM=F IPFlag=           0 FMFlag=      100000 FMFlg1=         800
         NFxFlg=           0 DoJE=F BraDBF=F KetDBF=F FulRan=T
         wScrn=  0.000000 ICntrl=    2127 IOpCl=  0 I1Cent=           0 NGrid=           0
         NMat0=    1 NMatS0=      1 NMatT0=    0 NMatD0=    1 NMtDS0=    0 NMtDT0=    0
 Symmetry not used in FoFCou.
 Leave Link  703 at Mon May  8 14:39:47 2017, MaxMem=  2684354560 cpu:         0.1
 (Enter /tcghome/ygeorgi/fock/g09/l716.exe)
 Dipole        =-6.85236371D-01-7.87543445D-02 7.81079470D-03
 -------------------------------------------------------------------
 Center     Atomic                   Forces (Hartrees/Bohr)
 Number     Number              X              Y              Z
 -------------------------------------------------------------------
      1        8          -0.044080483   -0.005397747    0.000430349
      2        1           0.017310527    0.045915324    0.009355798
      3        1           0.026769956   -0.040517577   -0.009786147
 -------------------------------------------------------------------
 Cartesian Forces:  Max     0.045915324 RMS     0.027732623
 Leave Link  716 at Mon May  8 14:39:47 2017, MaxMem=  2684354560 cpu:         0.0
 (Enter /tcghome/ygeorgi/fock/g09/l103.exe)

 GradGradGradGradGradGradGradGradGradGradGradGradGradGradGradGradGradGrad
 Berny optimization.
 FormGI is forming the generalized inverse of G from B-inverse, IUseBI=4.
 Internal  Forces:  Max     0.049375353 RMS     0.040986709
 Search for a local minimum.
 Step number   1 out of a maximum of   20
 All quantities printed in internal units (Hartrees-Bohrs-Radians)
 RMS Force = .40987D-01 SwitMx=.10000D-02 MixMth= 1
 Mixed Optimization -- RFO/linear search
 Second derivative matrix not updated -- first step.
 The second derivative matrix:
                          R1        R2        A1
           R1           0.47680
           R2           0.00000   0.47779
           A1           0.00000   0.00000   0.16000
 ITU=  0
     Eigenvalues ---    0.16000   0.47680   0.47779
 RFO step:  Lambda=-1.10985919D-02 EMin= 1.60000000D-01
 Linear search not attempted -- first point.
 Iteration  1 RMS(Cart)=  0.10419654 RMS(Int)=  0.00302715
 Iteration  2 RMS(Cart)=  0.00216879 RMS(Int)=  0.00000455
 Iteration  3 RMS(Cart)=  0.00000492 RMS(Int)=  0.00000000
 Iteration  4 RMS(Cart)=  0.00000000 RMS(Int)=  0.00000000
 ITry= 1 IFail=0 DXMaxC= 1.23D-01 DCOld= 1.00D+10 DXMaxT= 3.00D-01 DXLimC= 3.00D+00 Rises=F
 Variable       Old X    -DE/DX   Delta X   Delta X   Delta X     New X
                                 (Linear)    (Quad)   (Total)
    R1        1.88982  -0.04938   0.00000  -0.10120  -0.10120   1.78862
    R2        1.88876  -0.04895   0.00000  -0.10013  -0.10013   1.78862
    A1        1.91010  -0.01433   0.00000  -0.08374  -0.08374   1.82637
         Item               Value     Threshold  Converged?
 Maximum Force            0.049375     0.000450     NO 
 RMS     Force            0.040987     0.000300     NO 
 Maximum Displacement     0.123080     0.001800     NO 
 RMS     Displacement     0.103454     0.001200     NO 
 Predicted change in Energy=-5.700687D-03
 Lowest energy point so far.  Saving SCF results.
 GradGradGradGradGradGradGradGradGradGradGradGradGradGradGradGradGradGrad

 Leave Link  103 at Mon May  8 14:39:47 2017, MaxMem=  2684354560 cpu:         0.0
 (Enter /tcghome/ygeorgi/fock/g09/l202.exe)
                          Input orientation:                          
 ---------------------------------------------------------------------
 Center     Atomic      Atomic             Coordinates (Angstroms)
 Number     Number       Type             X           Y           Z
 ---------------------------------------------------------------------
      1          8           0       99.814746  100.834894  101.231950
      2          1           0       99.321601  100.041931  101.077441
      3          1           0       99.158453  101.495975  101.399609
 ---------------------------------------------------------------------
                    Distance matrix (angstroms):
                    1          2          3
     1  O    0.000000
     2  H    0.946496   0.000000
     3  H    0.946498   1.498217   0.000000
 Symmetry turned off by external request.
 Stoichiometry    H2O
 Framework group  CS[SG(H2O)]
 Deg. of freedom     3
 Full point group                 CS      NOp   2
 Rotational constants (GHZ):    843.5292089    446.7996821    292.0872229
 Leave Link  202 at Mon May  8 14:39:47 2017, MaxMem=  2684354560 cpu:         0.0
 (Enter /tcghome/ygeorgi/fock/g09/l301.exe)
 Standard basis: VSTO-6G (5D, 7F)
 Ernie: Thresh=  0.10000D-02 Tol=  0.10000D-05 Strict=F.
  NNHCO=     0 NNPyr=     0 NCTC=     0               EPep=         0.000000000
    EC=         5.047542830  ECS=         0.416150334   EG=         0.049370223
   EHC=         0.000000000  EAt=       -11.594002353  AtH=         0.260972954
 EPDDG=         0.000000000  ECC=         5.513063387 EAtT=        11.854975307
     6 basis functions,    36 primitive gaussians,     6 cartesian basis functions
     4 alpha electrons        4 beta electrons
       nuclear repulsion energy        17.3680386946 Hartrees.
 IExCor=    0 DFT=F Ex=HF Corr=None ExCW=0 ScaHFX=  1.000000
 ScaDFX=  1.000000  1.000000  1.000000  1.000000 ScalE2=  1.000000  1.000000
 IRadAn=      0 IRanWt=     -1 IRanGd=            0 ICorTp=0 IEmpDi=  4
 Integral buffers will be    131072 words long.
 Regular integral format.
 Two-electron integral symmetry is turned off.
 Leave Link  301 at Mon May  8 14:39:47 2017, MaxMem=  2684354560 cpu:         0.1
 (Enter /tcghome/ygeorgi/fock/g09/l302.exe)
 Do NDO integrals.
 NPDir=0 NMtPBC=     1 NCelOv=     1 NCel=       1 NClECP=     1 NCelD=      1
         NCelK=      1 NCelE2=     1 NClLst=     1 CellRange=     0.0.
 One-electron integrals computed using PRISM.
 NBasis=     6 RedAO= F EigKep=  0.00D+00  NBF=     6
 NBsUse=     6 1.00D-04 EigRej=  0.00D+00 NBFU=     6
 Leave Link  302 at Mon May  8 14:39:47 2017, MaxMem=  2684354560 cpu:         0.1
 (Enter /tcghome/ygeorgi/fock/g09/l303.exe)
 DipDrv:  MaxL=1.
 Leave Link  303 at Mon May  8 14:39:47 2017, MaxMem=  2684354560 cpu:         0.0
 (Enter /tcghome/ygeorgi/fock/g09/l401.exe)
 Initial guess from the checkpoint file:  "/s1/kecelim/Gau-30324.chk"
 B after Tr=    -0.019264    0.015691    0.004114
         Rot=    1.000000    0.000002   -0.000009    0.000044 Ang=   0.01 deg.
 Guess basis will be translated and rotated to current coordinates.
 JPrj=0 DoOrth=T DoCkMO=T.
 Leave Link  401 at Mon May  8 14:39:48 2017, MaxMem=  2684354560 cpu:         0.1
 (Enter /tcghome/ygeorgi/fock/g09/l502.exe)
 Closed shell SCF:
 Using DIIS extrapolation, IDIIS=  1040.
 Overlap will be assumed to be unity.
 Two-electron integral symmetry not used.
 Keep J ints in memory in canonical form, NReq=882349.
 IVT=       79022 IEndB=       79022 NGot=  2684354560 MDV=  2684275461
 LenX=  2684275461 LenY=  2684274579
 Requested convergence on RMS density matrix=1.00D-08 within 128 cycles.
 Requested convergence on MAX density matrix=1.00D-06.
 Requested convergence on             energy=1.00D-06.
 No special actions if energy rises.
 FoFCou: FMM=F IPFlag=           0 FMFlag=           0 FMFlg1=           0
         NFxFlg=           0 DoJE=F BraDBF=F KetDBF=F FulRan=T
         wScrn=  0.000000 ICntrl=     600 IOpCl=  2 I1Cent=           0 NGrid=           0
         NMat0=    1 NMatS0=     12 NMatT0=    0 NMatD0=    1 NMtDS0=    0 NMtDT0=    0
 Symmetry not used in FoFCou.

 Cycle   1  Pass 1  IDiag  1:
 E=-0.840325056205273E-01
 DIIS: error= 5.65D-03 at cycle   1 NSaved=   1.
 NSaved= 1 IEnMin= 1 EnMin=-0.840325056205273E-01 IErMin= 1 ErrMin= 5.65D-03
 ErrMax= 5.65D-03  0.00D+00 EMaxC= 1.00D-01 BMatC= 3.69D-04 BMatP= 3.69D-04
 IDIUse=3 WtCom= 9.44D-01 WtEn= 5.65D-02
 Coeff-Com:  0.100D+01
 Coeff-En:   0.100D+01
 Coeff:      0.100D+01
 GapD=    2.000 DampG=2.000 DampE=1.000 DampFc=2.0000 IDamp=-1.
 RMSDP=3.11D-03 MaxDP=7.94D-03              OVMax= 0.00D+00

 Cycle   2  Pass 1  IDiag  3:
 E=-0.846495013677568E-01 Delta-E=       -0.000616995747 Rises=F Damp=F
 DIIS: error= 1.32D-03 at cycle   2 NSaved=   2.
 NSaved= 2 IEnMin= 2 EnMin=-0.846495013677568E-01 IErMin= 2 ErrMin= 1.32D-03
 ErrMax= 1.32D-03  0.00D+00 EMaxC= 1.00D-01 BMatC= 1.97D-05 BMatP= 3.69D-04
 IDIUse=3 WtCom= 9.87D-01 WtEn= 1.32D-02
 Coeff-Com: -0.299D+00 0.130D+01
 Coeff-En:   0.000D+00 0.100D+01
 Coeff:     -0.295D+00 0.129D+01
 Gap=     0.607 Goal=   None    Shift=    0.000
 RMSDP=9.14D-04 MaxDP=2.43D-03 DE=-6.17D-04 OVMax= 3.78D-03

 Cycle   3  Pass 1  IDiag  3:
 E=-0.846840355696017E-01 Delta-E=       -0.000034534202 Rises=F Damp=F
 DIIS: error= 6.48D-05 at cycle   3 NSaved=   3.
 NSaved= 3 IEnMin= 3 EnMin=-0.846840355696017E-01 IErMin= 3 ErrMin= 6.48D-05
 ErrMax= 6.48D-05  0.00D+00 EMaxC= 1.00D-01 BMatC= 3.87D-08 BMatP= 1.97D-05
 IDIUse=1 WtCom= 1.00D+00 WtEn= 0.00D+00
 Coeff-Com:  0.204D+00-0.900D+00 0.170D+01
 Coeff:      0.204D+00-0.900D+00 0.170D+01
 Gap=     0.607 Goal=   None    Shift=    0.000
 RMSDP=9.00D-05 MaxDP=3.45D-04 DE=-3.45D-05 OVMax= 3.75D-04

 Cycle   4  Pass 1  IDiag  3:
 E=-0.846841855024891E-01 Delta-E=       -0.000000149933 Rises=F Damp=F
 DIIS: error= 3.96D-06 at cycle   4 NSaved=   4.
 NSaved= 4 IEnMin= 4 EnMin=-0.846841855024891E-01 IErMin= 4 ErrMin= 3.96D-06
 ErrMax= 3.96D-06  0.00D+00 EMaxC= 1.00D-01 BMatC= 1.85D-10 BMatP= 3.87D-08
 IDIUse=1 WtCom= 1.00D+00 WtEn= 0.00D+00
 Coeff-Com: -0.718D-01 0.316D+00-0.596D+00 0.135D+01
 Coeff:     -0.718D-01 0.316D+00-0.596D+00 0.135D+01
 Gap=     0.607 Goal=   None    Shift=    0.000
 RMSDP=4.44D-06 MaxDP=1.12D-05 DE=-1.50D-07 OVMax= 1.12D-05

 Cycle   5  Pass 1  IDiag  3:
 E=-0.846841860288521E-01 Delta-E=       -0.000000000526 Rises=F Damp=F
 DIIS: error= 8.23D-07 at cycle   5 NSaved=   5.
 NSaved= 5 IEnMin= 5 EnMin=-0.846841860288521E-01 IErMin= 5 ErrMin= 8.23D-07
 ErrMax= 8.23D-07  0.00D+00 EMaxC= 1.00D-01 BMatC= 5.07D-12 BMatP= 1.85D-10
 IDIUse=1 WtCom= 1.00D+00 WtEn= 0.00D+00
 Coeff-Com:  0.304D-01-0.133D+00 0.250D+00-0.600D+00 0.145D+01
 Coeff:      0.304D-01-0.133D+00 0.250D+00-0.600D+00 0.145D+01
 Gap=     0.607 Goal=   None    Shift=    0.000
 RMSDP=1.03D-06 MaxDP=2.17D-06 DE=-5.26D-10 OVMax= 3.25D-06

 Cycle   6  Pass 1  IDiag  3:
 E=-0.846841860497882E-01 Delta-E=       -0.000000000021 Rises=F Damp=F
 DIIS: error= 1.43D-07 at cycle   6 NSaved=   6.
 NSaved= 6 IEnMin= 6 EnMin=-0.846841860497882E-01 IErMin= 6 ErrMin= 1.43D-07
 ErrMax= 1.43D-07  0.00D+00 EMaxC= 1.00D-01 BMatC= 3.24D-13 BMatP= 5.07D-12
 IDIUse=1 WtCom= 1.00D+00 WtEn= 0.00D+00
 Coeff-Com: -0.103D-04-0.132D-03 0.135D-02-0.135D-03-0.232D+00 0.123D+01
 Coeff:     -0.103D-04-0.132D-03 0.135D-02-0.135D-03-0.232D+00 0.123D+01
 Gap=     0.607 Goal=   None    Shift=    0.000
 RMSDP=2.51D-07 MaxDP=5.95D-07 DE=-2.09D-11 OVMax= 7.36D-07

 Cycle   7  Pass 1  IDiag  3:
 E=-0.846841860509322E-01 Delta-E=       -0.000000000001 Rises=F Damp=F
 DIIS: error= 1.60D-08 at cycle   7 NSaved=   7.
 NSaved= 7 IEnMin= 7 EnMin=-0.846841860509322E-01 IErMin= 7 ErrMin= 1.60D-08
 ErrMax= 1.60D-08  0.00D+00 EMaxC= 1.00D-01 BMatC= 3.91D-15 BMatP= 3.24D-13
 IDIUse=1 WtCom= 1.00D+00 WtEn= 0.00D+00
 Coeff-Com: -0.724D-04 0.459D-03-0.175D-02 0.197D-02 0.179D+00-0.993D+00
 Coeff-Com:  0.181D+01
 Coeff:     -0.724D-04 0.459D-03-0.175D-02 0.197D-02 0.179D+00-0.993D+00
 Coeff:      0.181D+01
 Gap=     0.607 Goal=   None    Shift=    0.000
 RMSDP=3.47D-08 MaxDP=6.83D-08 DE=-1.14D-12 OVMax= 1.38D-07

 Cycle   8  Pass 1  IDiag  3:
 E=-0.846841860509500E-01 Delta-E=        0.000000000000 Rises=F Damp=F
 DIIS: error= 7.52D-10 at cycle   8 NSaved=   8.
 NSaved= 8 IEnMin= 8 EnMin=-0.846841860509500E-01 IErMin= 8 ErrMin= 7.52D-10
 ErrMax= 7.52D-10  0.00D+00 EMaxC= 1.00D-01 BMatC= 5.62D-18 BMatP= 3.91D-15
 IDIUse=1 WtCom= 1.00D+00 WtEn= 0.00D+00
 Coeff-Com:  0.877D-05-0.167D-03 0.112D-02-0.675D-03-0.164D+00 0.903D+00
 Coeff-Com: -0.165D+01 0.191D+01
 Coeff:      0.877D-05-0.167D-03 0.112D-02-0.675D-03-0.164D+00 0.903D+00
 Coeff:     -0.165D+01 0.191D+01
 Gap=     0.607 Goal=   None    Shift=    0.000
 RMSDP=1.45D-09 MaxDP=4.93D-09 DE=-1.78D-14 OVMax= 5.27D-09

 Cycle   9  Pass 2  IDiag  1:
 SCF Done:  E(RPM3) = -0.846841860509E-01 A.U. after    9 cycles
            NFock=  8  Conv=0.14D-08     -V/T= 0.9856
 KE=-5.863019483012D+00 PE=-2.305654697086D+01 EE= 1.146684357318D+01
 Leave Link  502 at Mon May  8 14:39:48 2017, MaxMem=  2684354560 cpu:         0.0
 (Enter /tcghome/ygeorgi/fock/g09/l701.exe)
 Compute integral first derivatives.
 ... and contract with generalized density number  0.
 Leave Link  701 at Mon May  8 14:39:48 2017, MaxMem=  2684354560 cpu:         0.1
 (Enter /tcghome/ygeorgi/fock/g09/l702.exe)
 L702 exits ... SP integral derivatives will be done elsewhere.
 Leave Link  702 at Mon May  8 14:39:48 2017, MaxMem=  2684354560 cpu:         0.0
 (Enter /tcghome/ygeorgi/fock/g09/l703.exe)
 Compute integral first derivatives, UseDBF=F ICtDFT=           0.
 Integral derivatives from FoFJK, PRISM(SPDF).
 Calling FoFJK, ICntrl=      2127 FMM=F ISym2X=0 I1Cent= 0 IOpClX= 0 NMat=1 NMatS=1 NMatT=0.
 FoFJK:  IHMeth= 9 ICntrl=    2127 DoSepK=F KAlg= 0 I1Cent=   0 FoldK=F
 IRaf=         0 NMat=   1 IRICut=       1 DoRegI=T DoRafI=F ISym2E= 0.
 FoFCou: FMM=F IPFlag=           0 FMFlag=      100000 FMFlg1=         800
         NFxFlg=           0 DoJE=F BraDBF=F KetDBF=F FulRan=T
         wScrn=  0.000000 ICntrl=    2127 IOpCl=  0 I1Cent=           0 NGrid=           0
         NMat0=    1 NMatS0=      1 NMatT0=    0 NMatD0=    1 NMtDS0=    0 NMtDT0=    0
 Symmetry not used in FoFCou.
 Leave Link  703 at Mon May  8 14:39:48 2017, MaxMem=  2684354560 cpu:         0.0
 (Enter /tcghome/ygeorgi/fock/g09/l716.exe)
 Dipole        =-6.85690555D-01-7.86743083D-02 7.84473078D-03
 -------------------------------------------------------------------
 Center     Atomic                   Forces (Hartrees/Bohr)
 Number     Number              X              Y              Z
 -------------------------------------------------------------------
      1        8          -0.000244858   -0.000027056    0.000003027
      2        1           0.001132104   -0.008988757   -0.001996103
      3        1          -0.000887245    0.009015813    0.001993076
 -------------------------------------------------------------------
 Cartesian Forces:  Max     0.009015813 RMS     0.004373772
 Leave Link  716 at Mon May  8 14:39:48 2017, MaxMem=  2684354560 cpu:         0.0
 (Enter /tcghome/ygeorgi/fock/g09/l103.exe)

 GradGradGradGradGradGradGradGradGradGradGradGradGradGradGradGradGradGrad
 Berny optimization.
 Using GEDIIS/GDIIS optimizer.
 FormGI is forming the generalized inverse of G from B-inverse, IUseBI=4.
 Internal  Forces:  Max     0.010315129 RMS     0.008406180
 Search for a local minimum.
 Step number   2 out of a maximum of   20
 All quantities printed in internal units (Hartrees-Bohrs-Radians)
 RMS Force = .84062D-02 SwitMx=.10000D-02 MixMth= 1
 Mixed Optimization -- RFO/linear search
 Update second derivatives using D2CorX and points    1    2
 DE= -4.60D-03 DEPred=-5.70D-03 R= 8.08D-01
 TightC=F SS=  1.41D+00  RLast= 1.65D-01 DXNew= 5.0454D-01 4.9550D-01
 Trust test= 8.08D-01 RLast= 1.65D-01 DXMaxT set to 4.96D-01
 The second derivative matrix:
                          R1        R2        A1
           R1           0.50011
           R2           0.02336   0.50119
           A1           0.04409   0.04382   0.18860
 ITU=  1  0
 Use linear search instead of GDIIS.
     Eigenvalues ---    0.17746   0.47729   0.53516
 RFO step:  Lambda=-2.36354410D-04 EMin= 1.77455933D-01
 Quartic linear search produced a step of -0.16006.
 Iteration  1 RMS(Cart)=  0.03004972 RMS(Int)=  0.00043615
 Iteration  2 RMS(Cart)=  0.00032034 RMS(Int)=  0.00000004
 Iteration  3 RMS(Cart)=  0.00000004 RMS(Int)=  0.00000000
 ITry= 1 IFail=0 DXMaxC= 3.28D-02 DCOld= 1.00D+10 DXMaxT= 4.96D-01 DXLimC= 3.00D+00 Rises=F
 Variable       Old X    -DE/DX   Delta X   Delta X   Delta X     New X
                                 (Linear)    (Quad)   (Total)
    R1        1.78862   0.00727   0.01620  -0.00759   0.00860   1.79722
    R2        1.78862   0.00727   0.01603  -0.00740   0.00862   1.79724
    A1        1.82637   0.01032   0.01340   0.03434   0.04774   1.87411
         Item               Value     Threshold  Converged?
 Maximum Force            0.010315     0.000450     NO 
 RMS     Force            0.008406     0.000300     NO 
 Maximum Displacement     0.032773     0.001800     NO 
 RMS     Displacement     0.029945     0.001200     NO 
 Predicted change in Energy=-3.276652D-04
 Lowest energy point so far.  Saving SCF results.
 GradGradGradGradGradGradGradGradGradGradGradGradGradGradGradGradGradGrad

 Leave Link  103 at Mon May  8 14:39:48 2017, MaxMem=  2684354560 cpu:         0.0
 (Enter /tcghome/ygeorgi/fock/g09/l202.exe)
                          Input orientation:                          
 ---------------------------------------------------------------------
 Center     Atomic      Atomic             Coordinates (Angstroms)
 Number     Number       Type             X           Y           Z
 ---------------------------------------------------------------------
      1          8           0       99.804584  100.833725  101.232065
      2          1           0       99.328564  100.025758  101.073671
      3          1           0       99.161652  101.513318  101.403264
 ---------------------------------------------------------------------
                    Distance matrix (angstroms):
                    1          2          3
     1  O    0.000000
     2  H    0.951049   0.000000
     3  H    0.951060   1.532751   0.000000
 Symmetry turned off by external request.
 Stoichiometry    H2O
 Framework group  CS[SG(H2O)]
 Deg. of freedom     3
 Full point group                 CS      NOp   2
 Rotational constants (GHZ):    890.1237170    426.8927033    288.5213229
 Leave Link  202 at Mon May  8 14:39:48 2017, MaxMem=  2684354560 cpu:         0.0
 (Enter /tcghome/ygeorgi/fock/g09/l301.exe)
 Standard basis: VSTO-6G (5D, 7F)
 Ernie: Thresh=  0.10000D-02 Tol=  0.10000D-05 Strict=F.
  NNHCO=     0 NNPyr=     0 NCTC=     0               EPep=         0.000000000
    EC=         5.031341642  ECS=         0.409579320   EG=         0.049251207
   EHC=         0.000000000  EAt=       -11.594002353  AtH=         0.260972954
 EPDDG=         0.000000000  ECC=         5.490172169 EAtT=        11.854975307
     6 basis functions,    36 primitive gaussians,     6 cartesian basis functions
     4 alpha electrons        4 beta electrons
       nuclear repulsion energy        17.3451474767 Hartrees.
 IExCor=    0 DFT=F Ex=HF Corr=None ExCW=0 ScaHFX=  1.000000
 ScaDFX=  1.000000  1.000000  1.000000  1.000000 ScalE2=  1.000000  1.000000
 IRadAn=      0 IRanWt=     -1 IRanGd=            0 ICorTp=0 IEmpDi=  4
 Integral buffers will be    131072 words long.
 Regular integral format.
 Two-electron integral symmetry is turned off.
 Leave Link  301 at Mon May  8 14:39:48 2017, MaxMem=  2684354560 cpu:         0.1
 (Enter /tcghome/ygeorgi/fock/g09/l302.exe)
 Do NDO integrals.
 NPDir=0 NMtPBC=     1 NCelOv=     1 NCel=       1 NClECP=     1 NCelD=      1
         NCelK=      1 NCelE2=     1 NClLst=     1 CellRange=     0.0.
 One-electron integrals computed using PRISM.
 NBasis=     6 RedAO= F EigKep=  0.00D+00  NBF=     6
 NBsUse=     6 1.00D-04 EigRej=  0.00D+00 NBFU=     6
 Leave Link  302 at Mon May  8 14:39:48 2017, MaxMem=  2684354560 cpu:         0.1
 (Enter /tcghome/ygeorgi/fock/g09/l303.exe)
 DipDrv:  MaxL=1.
 Leave Link  303 at Mon May  8 14:39:48 2017, MaxMem=  2684354560 cpu:         0.0
 (Enter /tcghome/ygeorgi/fock/g09/l401.exe)
 Initial guess from the checkpoint file:  "/s1/kecelim/Gau-30324.chk"
 B after Tr=    -0.013826   -0.001248    0.000232
         Rot=    1.000000    0.000000    0.000000    0.000001 Ang=   0.00 deg.
 Guess basis will be translated and rotated to current coordinates.
 JPrj=0 DoOrth=T DoCkMO=T.
 Leave Link  401 at Mon May  8 14:39:48 2017, MaxMem=  2684354560 cpu:         0.1
 (Enter /tcghome/ygeorgi/fock/g09/l502.exe)
 Closed shell SCF:
 Using DIIS extrapolation, IDIIS=  1040.
 Overlap will be assumed to be unity.
 Two-electron integral symmetry not used.
 Keep J ints in memory in canonical form, NReq=882349.
 IVT=       79022 IEndB=       79022 NGot=  2684354560 MDV=  2684275461
 LenX=  2684275461 LenY=  2684274579
 Requested convergence on RMS density matrix=1.00D-08 within 128 cycles.
 Requested convergence on MAX density matrix=1.00D-06.
 Requested convergence on             energy=1.00D-06.
 No special actions if energy rises.
 FoFCou: FMM=F IPFlag=           0 FMFlag=           0 FMFlg1=           0
         NFxFlg=           0 DoJE=F BraDBF=F KetDBF=F FulRan=T
         wScrn=  0.000000 ICntrl=     600 IOpCl=  2 I1Cent=           0 NGrid=           0
         NMat0=    1 NMatS0=     12 NMatT0=    0 NMatD0=    1 NMtDS0=    0 NMtDT0=    0
 Symmetry not used in FoFCou.

 Cycle   1  Pass 1  IDiag  1:
 E=-0.849705479199088E-01
 DIIS: error= 1.01D-03 at cycle   1 NSaved=   1.
 NSaved= 1 IEnMin= 1 EnMin=-0.849705479199088E-01 IErMin= 1 ErrMin= 1.01D-03
 ErrMax= 1.01D-03  0.00D+00 EMaxC= 1.00D-01 BMatC= 1.06D-05 BMatP= 1.06D-05
 IDIUse=3 WtCom= 9.90D-01 WtEn= 1.01D-02
 Coeff-Com:  0.100D+01
 Coeff-En:   0.100D+01
 Coeff:      0.100D+01
 GapD=    2.000 DampG=2.000 DampE=1.000 DampFc=2.0000 IDamp=-1.
 RMSDP=9.59D-04 MaxDP=3.35D-03              OVMax= 0.00D+00

 Cycle   2  Pass 1  IDiag  3:
 E=-0.850074225884292E-01 Delta-E=       -0.000036874669 Rises=F Damp=F
 DIIS: error= 4.51D-04 at cycle   2 NSaved=   2.
 NSaved= 2 IEnMin= 2 EnMin=-0.850074225884292E-01 IErMin= 2 ErrMin= 4.51D-04
 ErrMax= 4.51D-04  0.00D+00 EMaxC= 1.00D-01 BMatC= 1.97D-06 BMatP= 1.06D-05
 IDIUse=3 WtCom= 9.95D-01 WtEn= 4.51D-03
 Coeff-Com: -0.664D+00 0.166D+01
 Coeff-En:   0.000D+00 0.100D+01
 Coeff:     -0.661D+00 0.166D+01
 Gap=     0.602 Goal=   None    Shift=    0.000
 RMSDP=7.53D-04 MaxDP=2.72D-03 DE=-3.69D-05 OVMax= 2.99D-03

 Cycle   3  Pass 1  IDiag  3:
 E=-0.850173789462687E-01 Delta-E=       -0.000009956358 Rises=F Damp=F
 DIIS: error= 6.22D-05 at cycle   3 NSaved=   3.
 NSaved= 3 IEnMin= 3 EnMin=-0.850173789462687E-01 IErMin= 3 ErrMin= 6.22D-05
 ErrMax= 6.22D-05  0.00D+00 EMaxC= 1.00D-01 BMatC= 4.43D-08 BMatP= 1.97D-06
 IDIUse=1 WtCom= 1.00D+00 WtEn= 0.00D+00
 Coeff-Com:  0.271D+00-0.774D+00 0.150D+01
 Coeff:      0.271D+00-0.774D+00 0.150D+01
 Gap=     0.602 Goal=   None    Shift=    0.000
 RMSDP=1.28D-04 MaxDP=4.61D-04 DE=-9.96D-06 OVMax= 5.26D-04

 Cycle   4  Pass 1  IDiag  3:
 E=-0.850175969400162E-01 Delta-E=       -0.000000217994 Rises=F Damp=F
 DIIS: error= 2.46D-07 at cycle   4 NSaved=   4.
 NSaved= 4 IEnMin= 4 EnMin=-0.850175969400162E-01 IErMin= 4 ErrMin= 2.46D-07
 ErrMax= 2.46D-07  0.00D+00 EMaxC= 1.00D-01 BMatC= 9.76D-13 BMatP= 4.43D-08
 IDIUse=1 WtCom= 1.00D+00 WtEn= 0.00D+00
 Coeff-Com: -0.777D-01 0.222D+00-0.430D+00 0.129D+01
 Coeff:     -0.777D-01 0.222D+00-0.430D+00 0.129D+01
 Gap=     0.602 Goal=   None    Shift=    0.000
 RMSDP=3.49D-07 MaxDP=9.75D-07 DE=-2.18D-07 OVMax= 1.01D-06

 Cycle   5  Pass 1  IDiag  3:
 E=-0.850175969433060E-01 Delta-E=       -0.000000000003 Rises=F Damp=F
 DIIS: error= 6.79D-08 at cycle   5 NSaved=   5.
 NSaved= 5 IEnMin= 5 EnMin=-0.850175969433060E-01 IErMin= 5 ErrMin= 6.79D-08
 ErrMax= 6.79D-08  0.00D+00 EMaxC= 1.00D-01 BMatC= 6.06D-14 BMatP= 9.76D-13
 IDIUse=1 WtCom= 1.00D+00 WtEn= 0.00D+00
 Coeff-Com:  0.599D-03-0.171D-02 0.280D-02-0.314D+00 0.131D+01
 Coeff:      0.599D-03-0.171D-02 0.280D-02-0.314D+00 0.131D+01
 Gap=     0.602 Goal=   None    Shift=    0.000
 RMSDP=1.04D-07 MaxDP=3.14D-07 DE=-3.29D-12 OVMax= 3.68D-07

 Cycle   6  Pass 1  IDiag  3:
 E=-0.850175969435405E-01 Delta-E=        0.000000000000 Rises=F Damp=F
 DIIS: error= 7.11D-09 at cycle   6 NSaved=   6.
 NSaved= 6 IEnMin= 6 EnMin=-0.850175969435405E-01 IErMin= 6 ErrMin= 7.11D-09
 ErrMax= 7.11D-09  0.00D+00 EMaxC= 1.00D-01 BMatC= 6.72D-16 BMatP= 6.06D-14
 IDIUse=1 WtCom= 1.00D+00 WtEn= 0.00D+00
 Coeff-Com:  0.535D-04-0.155D-03 0.605D-03 0.179D+00-0.783D+00 0.160D+01
 Coeff:      0.535D-04-0.155D-03 0.605D-03 0.179D+00-0.783D+00 0.160D+01
 Gap=     0.602 Goal=   None    Shift=    0.000
 RMSDP=1.34D-08 MaxDP=3.23D-08 DE=-2.34D-13 OVMax= 5.50D-08

 Cycle   7  Pass 1  IDiag  3:
 E=-0.850175969435476E-01 Delta-E=        0.000000000000 Rises=F Damp=F
 DIIS: error= 9.63D-10 at cycle   7 NSaved=   7.
 NSaved= 7 IEnMin= 7 EnMin=-0.850175969435476E-01 IErMin= 7 ErrMin= 9.63D-10
 ErrMax= 9.63D-10  0.00D+00 EMaxC= 1.00D-01 BMatC= 1.27D-17 BMatP= 6.72D-16
 IDIUse=1 WtCom= 1.00D+00 WtEn= 0.00D+00
 Coeff-Com: -0.683D-05 0.207D-04-0.225D-03-0.109D+00 0.479D+00-0.103D+01
 Coeff-Com:  0.166D+01
 Coeff:     -0.683D-05 0.207D-04-0.225D-03-0.109D+00 0.479D+00-0.103D+01
 Coeff:      0.166D+01
 Gap=     0.602 Goal=   None    Shift=    0.000
 RMSDP=1.91D-09 MaxDP=4.19D-09 DE=-7.11D-15 OVMax= 6.67D-09

 Cycle   8  Pass 2  IDiag  1:
 SCF Done:  E(RPM3) = -0.850175969435E-01 A.U. after    8 cycles
            NFock=  7  Conv=0.19D-08     -V/T= 0.9855
 KE=-5.856515494976D+00 PE=-2.303199337931D+01 EE= 1.145834380068D+01
 Leave Link  502 at Mon May  8 14:39:48 2017, MaxMem=  2684354560 cpu:         0.0
 (Enter /tcghome/ygeorgi/fock/g09/l701.exe)
 Compute integral first derivatives.
 ... and contract with generalized density number  0.
 Leave Link  701 at Mon May  8 14:39:49 2017, MaxMem=  2684354560 cpu:         0.1
 (Enter /tcghome/ygeorgi/fock/g09/l702.exe)
 L702 exits ... SP integral derivatives will be done elsewhere.
 Leave Link  702 at Mon May  8 14:39:49 2017, MaxMem=  2684354560 cpu:         0.0
 (Enter /tcghome/ygeorgi/fock/g09/l703.exe)
 Compute integral first derivatives, UseDBF=F ICtDFT=           0.
 Integral derivatives from FoFJK, PRISM(SPDF).
 Calling FoFJK, ICntrl=      2127 FMM=F ISym2X=0 I1Cent= 0 IOpClX= 0 NMat=1 NMatS=1 NMatT=0.
 FoFJK:  IHMeth= 9 ICntrl=    2127 DoSepK=F KAlg= 0 I1Cent=   0 FoldK=F
 IRaf=         0 NMat=   1 IRICut=       1 DoRegI=T DoRafI=F ISym2E= 0.
 FoFCou: FMM=F IPFlag=           0 FMFlag=      100000 FMFlg1=         800
         NFxFlg=           0 DoJE=F BraDBF=F KetDBF=F FulRan=T
         wScrn=  0.000000 ICntrl=    2127 IOpCl=  0 I1Cent=           0 NGrid=           0
         NMat0=    1 NMatS0=      1 NMatT0=    0 NMatD0=    1 NMtDS0=    0 NMtDT0=    0
 Symmetry not used in FoFCou.
 Leave Link  703 at Mon May  8 14:39:49 2017, MaxMem=  2684354560 cpu:         0.1
 (Enter /tcghome/ygeorgi/fock/g09/l716.exe)
 Dipole        =-6.80279684D-01-7.80512402D-02 7.78331402D-03
 -------------------------------------------------------------------
 Center     Atomic                   Forces (Hartrees/Bohr)
 Number     Number              X              Y              Z
 -------------------------------------------------------------------
      1        8          -0.000700895   -0.000071497    0.000009959
      2        1           0.000393065   -0.000373958   -0.000095635
      3        1           0.000307829    0.000445455    0.000085676
 -------------------------------------------------------------------
 Cartesian Forces:  Max     0.000700895 RMS     0.000349680
 Leave Link  716 at Mon May  8 14:39:49 2017, MaxMem=  2684354560 cpu:         0.0
 (Enter /tcghome/ygeorgi/fock/g09/l103.exe)

 GradGradGradGradGradGradGradGradGradGradGradGradGradGradGradGradGradGrad
 Berny optimization.
 Using GEDIIS/GDIIS optimizer.
 FormGI is forming the generalized inverse of G from B-inverse, IUseBI=4.
 Internal  Forces:  Max     0.000959038 RMS     0.000563996
 Search for a local minimum.
 Step number   3 out of a maximum of   20
 All quantities printed in internal units (Hartrees-Bohrs-Radians)
 RMS Force = .56400D-03 SwitMx=.10000D-02 MixMth= 2
 Mixed Optimization -- En-DIIS/RFO-DIIS
 Update second derivatives using D2CorX and points    1    2    3
 DE= -3.33D-04 DEPred=-3.28D-04 R= 1.02D+00
 TightC=F SS=  1.41D+00  RLast= 4.93D-02 DXNew= 8.3334D-01 1.4781D-01
 Trust test= 1.02D+00 RLast= 4.93D-02 DXMaxT set to 4.96D-01
 The second derivative matrix:
                          R1        R2        A1
           R1           0.51072
           R2           0.03404   0.51193
           A1           0.05116   0.05096   0.17756
 ITU=  1  1  0
 Use linear search instead of GDIIS.
     Eigenvalues ---    0.16389   0.47729   0.55904
 RFO step:  Lambda=-1.19354070D-06 EMin= 1.63887361D-01
 Quartic linear search produced a step of  0.08379.
 Iteration  1 RMS(Cart)=  0.00296230 RMS(Int)=  0.00000562
 Iteration  2 RMS(Cart)=  0.00000511 RMS(Int)=  0.00000000
 Iteration  3 RMS(Cart)=  0.00000000 RMS(Int)=  0.00000000
 ITry= 1 IFail=0 DXMaxC= 2.79D-03 DCOld= 1.00D+10 DXMaxT= 4.96D-01 DXLimC= 3.00D+00 Rises=F
 Variable       Old X    -DE/DX   Delta X   Delta X   Delta X     New X
                                 (Linear)    (Quad)   (Total)
    R1        1.79722   0.00014   0.00072  -0.00099  -0.00027   1.79695
    R2        1.79724   0.00013   0.00072  -0.00101  -0.00029   1.79695
    A1        1.87411   0.00096   0.00400   0.00153   0.00553   1.87963
         Item               Value     Threshold  Converged?
 Maximum Force            0.000959     0.000450     NO 
 RMS     Force            0.000564     0.000300     NO 
 Maximum Displacement     0.002785     0.001800     NO 
 RMS     Displacement     0.002960     0.001200     NO 
 Predicted change in Energy=-2.630450D-06
 Lowest energy point so far.  Saving SCF results.
 GradGradGradGradGradGradGradGradGradGradGradGradGradGradGradGradGradGrad

 Leave Link  103 at Mon May  8 14:39:49 2017, MaxMem=  2684354560 cpu:         0.0
 (Enter /tcghome/ygeorgi/fock/g09/l202.exe)
                          Input orientation:                          
 ---------------------------------------------------------------------
 Center     Atomic      Atomic             Coordinates (Angstroms)
 Number     Number       Type             X           Y           Z
 ---------------------------------------------------------------------
      1          8           0       99.803122  100.833561  101.232083
      2          1           0       99.329450  100.024448  101.073353
      3          1           0       99.162229  101.514792  101.403564
 ---------------------------------------------------------------------
                    Distance matrix (angstroms):
                    1          2          3
     1  O    0.000000
     2  H    0.950907   0.000000
     3  H    0.950907   1.535619   0.000000
 Symmetry turned off by external request.
 Stoichiometry    H2O
 Framework group  CS[SG(H2O)]
 Deg. of freedom     3
 Full point group                 CS      NOp   2
 Rotational constants (GHZ):    897.1405258    425.2995538    288.5223090
 Leave Link  202 at Mon May  8 14:39:49 2017, MaxMem=  2684354560 cpu:         0.0
 (Enter /tcghome/ygeorgi/fock/g09/l301.exe)
 Standard basis: VSTO-6G (5D, 7F)
 Ernie: Thresh=  0.10000D-02 Tol=  0.10000D-05 Strict=F.
  NNHCO=     0 NNPyr=     0 NCTC=     0               EPep=         0.000000000
    EC=         5.031323945  ECS=         0.409738054   EG=         0.049164503
   EHC=         0.000000000  EAt=       -11.594002353  AtH=         0.260972954
 EPDDG=         0.000000000  ECC=         5.490226502 EAtT=        11.854975307
     6 basis functions,    36 primitive gaussians,     6 cartesian basis functions
     4 alpha electrons        4 beta electrons
       nuclear repulsion energy        17.3452018092 Hartrees.
 IExCor=    0 DFT=F Ex=HF Corr=None ExCW=0 ScaHFX=  1.000000
 ScaDFX=  1.000000  1.000000  1.000000  1.000000 ScalE2=  1.000000  1.000000
 IRadAn=      0 IRanWt=     -1 IRanGd=            0 ICorTp=0 IEmpDi=  4
 Integral buffers will be    131072 words long.
 Regular integral format.
 Two-electron integral symmetry is turned off.
 Leave Link  301 at Mon May  8 14:39:49 2017, MaxMem=  2684354560 cpu:         0.1
 (Enter /tcghome/ygeorgi/fock/g09/l302.exe)
 Do NDO integrals.
 NPDir=0 NMtPBC=     1 NCelOv=     1 NCel=       1 NClECP=     1 NCelD=      1
         NCelK=      1 NCelE2=     1 NClLst=     1 CellRange=     0.0.
 One-electron integrals computed using PRISM.
 NBasis=     6 RedAO= F EigKep=  0.00D+00  NBF=     6
 NBsUse=     6 1.00D-04 EigRej=  0.00D+00 NBFU=     6
 Leave Link  302 at Mon May  8 14:39:49 2017, MaxMem=  2684354560 cpu:         0.1
 (Enter /tcghome/ygeorgi/fock/g09/l303.exe)
 DipDrv:  MaxL=1.
 Leave Link  303 at Mon May  8 14:39:49 2017, MaxMem=  2684354560 cpu:         0.0
 (Enter /tcghome/ygeorgi/fock/g09/l401.exe)
 Initial guess from the checkpoint file:  "/s1/kecelim/Gau-30324.chk"
 B after Tr=    -0.001530   -0.000533   -0.000060
         Rot=    1.000000    0.000000    0.000000   -0.000001 Ang=   0.00 deg.
 Guess basis will be translated and rotated to current coordinates.
 JPrj=0 DoOrth=T DoCkMO=T.
 Leave Link  401 at Mon May  8 14:39:49 2017, MaxMem=  2684354560 cpu:         0.1
 (Enter /tcghome/ygeorgi/fock/g09/l502.exe)
 Closed shell SCF:
 Using DIIS extrapolation, IDIIS=  1040.
 Overlap will be assumed to be unity.
 Two-electron integral symmetry not used.
 Keep J ints in memory in canonical form, NReq=882349.
 IVT=       79022 IEndB=       79022 NGot=  2684354560 MDV=  2684275461
 LenX=  2684275461 LenY=  2684274579
 Requested convergence on RMS density matrix=1.00D-08 within 128 cycles.
 Requested convergence on MAX density matrix=1.00D-06.
 Requested convergence on             energy=1.00D-06.
 No special actions if energy rises.
 FoFCou: FMM=F IPFlag=           0 FMFlag=           0 FMFlg1=           0
         NFxFlg=           0 DoJE=F BraDBF=F KetDBF=F FulRan=T
         wScrn=  0.000000 ICntrl=     600 IOpCl=  2 I1Cent=           0 NGrid=           0
         NMat0=    1 NMatS0=     12 NMatT0=    0 NMatD0=    1 NMtDS0=    0 NMtDT0=    0
 Symmetry not used in FoFCou.

 Cycle   1  Pass 1  IDiag  1:
 E=-0.850192485159376E-01
 DIIS: error= 1.19D-04 at cycle   1 NSaved=   1.
 NSaved= 1 IEnMin= 1 EnMin=-0.850192485159376E-01 IErMin= 1 ErrMin= 1.19D-04
 ErrMax= 1.19D-04  0.00D+00 EMaxC= 1.00D-01 BMatC= 1.67D-07 BMatP= 1.67D-07
 IDIUse=3 WtCom= 9.99D-01 WtEn= 1.19D-03
 Coeff-Com:  0.100D+01
 Coeff-En:   0.100D+01
 Coeff:      0.100D+01
 RMSDP=1.38D-04 MaxDP=4.97D-04              OVMax= 0.00D+00

 Cycle   2  Pass 1  IDiag  3:
 E=-0.850199526010300E-01 Delta-E=       -0.000000704085 Rises=F Damp=F
 DIIS: error= 5.91D-05 at cycle   2 NSaved=   2.
 NSaved= 2 IEnMin= 2 EnMin=-0.850199526010300E-01 IErMin= 2 ErrMin= 5.91D-05
 ErrMax= 5.91D-05  0.00D+00 EMaxC= 1.00D-01 BMatC= 3.84D-08 BMatP= 1.67D-07
 IDIUse=1 WtCom= 1.00D+00 WtEn= 0.00D+00
 Coeff-Com: -0.906D+00 0.191D+01
 Coeff:     -0.906D+00 0.191D+01
 Gap=     0.602 Goal=   None    Shift=    0.000
 RMSDP=1.26D-04 MaxDP=4.57D-04 DE=-7.04D-07 OVMax= 5.15D-04

 Cycle   3  Pass 1  IDiag  3:
 E=-0.850201656906542E-01 Delta-E=       -0.000000213090 Rises=F Damp=F
 DIIS: error= 2.21D-06 at cycle   3 NSaved=   3.
 NSaved= 3 IEnMin= 3 EnMin=-0.850201656906542E-01 IErMin= 3 ErrMin= 2.21D-06
 ErrMax= 2.21D-06  0.00D+00 EMaxC= 1.00D-01 BMatC= 6.43D-11 BMatP= 3.84D-08
 IDIUse=1 WtCom= 1.00D+00 WtEn= 0.00D+00
 Coeff-Com:  0.272D+00-0.584D+00 0.131D+01
 Coeff:      0.272D+00-0.584D+00 0.131D+01
 Gap=     0.602 Goal=   None    Shift=    0.000
 RMSDP=2.50D-06 MaxDP=7.38D-06 DE=-2.13D-07 OVMax= 7.50D-06

 Cycle   4  Pass 1  IDiag  3:
 E=-0.850201658382765E-01 Delta-E=       -0.000000000148 Rises=F Damp=F
 DIIS: error= 8.72D-08 at cycle   4 NSaved=   4.
 NSaved= 4 IEnMin= 4 EnMin=-0.850201658382765E-01 IErMin= 4 ErrMin= 8.72D-08
 ErrMax= 8.72D-08  0.00D+00 EMaxC= 1.00D-01 BMatC= 1.27D-13 BMatP= 6.43D-11
 IDIUse=1 WtCom= 1.00D+00 WtEn= 0.00D+00
 Coeff-Com: -0.106D+00 0.228D+00-0.516D+00 0.139D+01
 Coeff:     -0.106D+00 0.228D+00-0.516D+00 0.139D+01
 Gap=     0.602 Goal=   None    Shift=    0.000
 RMSDP=1.16D-07 MaxDP=2.95D-07 DE=-1.48D-10 OVMax= 3.23D-07

 Cycle   5  Pass 1  IDiag  3:
 E=-0.850201658386460E-01 Delta-E=        0.000000000000 Rises=F Damp=F
 DIIS: error= 1.59D-08 at cycle   5 NSaved=   5.
 NSaved= 5 IEnMin= 5 EnMin=-0.850201658386460E-01 IErMin= 5 ErrMin= 1.59D-08
 ErrMax= 1.59D-08  0.00D+00 EMaxC= 1.00D-01 BMatC= 2.41D-15 BMatP= 1.27D-13
 IDIUse=1 WtCom= 1.00D+00 WtEn= 0.00D+00
 Coeff-Com:  0.638D-01-0.137D+00 0.309D+00-0.885D+00 0.165D+01
 Coeff:      0.638D-01-0.137D+00 0.309D+00-0.885D+00 0.165D+01
 Gap=     0.602 Goal=   None    Shift=    0.000
 RMSDP=2.48D-08 MaxDP=8.90D-08 DE=-3.69D-13 OVMax= 6.97D-08

 Cycle   6  Pass 1  IDiag  3:
 E=-0.850201658386673E-01 Delta-E=        0.000000000000 Rises=F Damp=F
 DIIS: error= 6.70D-10 at cycle   6 NSaved=   6.
 NSaved= 6 IEnMin= 6 EnMin=-0.850201658386673E-01 IErMin= 6 ErrMin= 6.70D-10
 ErrMax= 6.70D-10  0.00D+00 EMaxC= 1.00D-01 BMatC= 9.22D-18 BMatP= 2.41D-15
 IDIUse=1 WtCom= 1.00D+00 WtEn= 0.00D+00
 Coeff-Com: -0.223D-01 0.478D-01-0.108D+00 0.311D+00-0.547D+00 0.132D+01
 Coeff:     -0.223D-01 0.478D-01-0.108D+00 0.311D+00-0.547D+00 0.132D+01
 Gap=     0.602 Goal=   None    Shift=    0.000
 RMSDP=1.81D-09 MaxDP=5.95D-09 DE=-2.13D-14 OVMax= 6.32D-09

 Cycle   7  Pass 2  IDiag  1:
 SCF Done:  E(RPM3) = -0.850201658387E-01 A.U. after    7 cycles
            NFock=  6  Conv=0.18D-08     -V/T= 0.9855
 KE=-5.856501336289D+00 PE=-2.303241778611D+01 EE= 1.145869714734D+01
 Leave Link  502 at Mon May  8 14:39:49 2017, MaxMem=  2684354560 cpu:         0.1
 (Enter /tcghome/ygeorgi/fock/g09/l701.exe)
 Compute integral first derivatives.
 ... and contract with generalized density number  0.
 Leave Link  701 at Mon May  8 14:39:49 2017, MaxMem=  2684354560 cpu:         0.1
 (Enter /tcghome/ygeorgi/fock/g09/l702.exe)
 L702 exits ... SP integral derivatives will be done elsewhere.
 Leave Link  702 at Mon May  8 14:39:49 2017, MaxMem=  2684354560 cpu:         0.1
 (Enter /tcghome/ygeorgi/fock/g09/l703.exe)
 Compute integral first derivatives, UseDBF=F ICtDFT=           0.
 Integral derivatives from FoFJK, PRISM(SPDF).
 Calling FoFJK, ICntrl=      2127 FMM=F ISym2X=0 I1Cent= 0 IOpClX= 0 NMat=1 NMatS=1 NMatT=0.
 FoFJK:  IHMeth= 9 ICntrl=    2127 DoSepK=F KAlg= 0 I1Cent=   0 FoldK=F
 IRaf=         0 NMat=   1 IRICut=       1 DoRegI=T DoRafI=F ISym2E= 0.
 FoFCou: FMM=F IPFlag=           0 FMFlag=      100000 FMFlg1=         800
         NFxFlg=           0 DoJE=F BraDBF=F KetDBF=F FulRan=T
         wScrn=  0.000000 ICntrl=    2127 IOpCl=  0 I1Cent=           0 NGrid=           0
         NMat0=    1 NMatS0=      1 NMatT0=    0 NMatD0=    1 NMtDS0=    0 NMtDT0=    0
 Symmetry not used in FoFCou.
 Leave Link  703 at Mon May  8 14:39:49 2017, MaxMem=  2684354560 cpu:         0.1
 (Enter /tcghome/ygeorgi/fock/g09/l716.exe)
 Dipole        =-6.79499283D-01-7.79641982D-02 7.77384218D-03
 -------------------------------------------------------------------
 Center     Atomic                   Forces (Hartrees/Bohr)
 Number     Number              X              Y              Z
 -------------------------------------------------------------------
      1        8           0.000058703    0.000007064   -0.000000600
      2        1          -0.000026266   -0.000032125   -0.000006031
      3        1          -0.000032438    0.000025060    0.000006631
 -------------------------------------------------------------------
 Cartesian Forces:  Max     0.000058703 RMS     0.000027846
 Leave Link  716 at Mon May  8 14:39:50 2017, MaxMem=  2684354560 cpu:         0.0
 (Enter /tcghome/ygeorgi/fock/g09/l103.exe)

 GradGradGradGradGradGradGradGradGradGradGradGradGradGradGradGradGradGrad
 Berny optimization.
 Using GEDIIS/GDIIS optimizer.
 FormGI is forming the generalized inverse of G from B-inverse, IUseBI=4.
 Internal  Forces:  Max     0.000041425 RMS     0.000034324
 Search for a local minimum.
 Step number   4 out of a maximum of   20
 All quantities printed in internal units (Hartrees-Bohrs-Radians)
 RMS Force = .34324D-04 SwitMx=.10000D-02 MixMth= 2
 Mixed Optimization -- En-DIIS/RFO-DIIS
 Swapping is turned off.
 Update second derivatives using D2CorX and points    1    2    3    4
 DE= -2.57D-06 DEPred=-2.63D-06 R= 9.77D-01
 TightC=F SS=  1.41D+00  RLast= 5.54D-03 DXNew= 8.3334D-01 1.6621D-02
 Trust test= 9.77D-01 RLast= 5.54D-03 DXMaxT set to 4.96D-01
 The second derivative matrix:
                          R1        R2        A1
           R1           0.50009
           R2           0.02347   0.50144
           A1           0.04280   0.04268   0.17997
 ITU=  1  1  1  0
     Eigenvalues ---    0.16967   0.47728   0.53455
 En-DIIS/RFO-DIIS IScMMF=        0 using points:     4    3
 RFO step:  Lambda= 0.00000000D+00.
 NNeg= 0 NP= 2 Switch=  2.50D-03 Rises=F DC=  2.57D-06 SmlDif=  1.00D-05
 RMS Error=  0.5303816764D-04 NUsed= 2 EDIIS=F
 DidBck=F Rises=F RFO-DIIS coefs:    0.98353    0.01647
 Iteration  1 RMS(Cart)=  0.00006174 RMS(Int)=  0.00000000
 Iteration  2 RMS(Cart)=  0.00000000 RMS(Int)=  0.00000000
 ITry= 1 IFail=0 DXMaxC= 8.52D-05 DCOld= 1.00D+10 DXMaxT= 4.96D-01 DXLimC= 3.00D+00 Rises=F
 Variable       Old X    -DE/DX   Delta X   Delta X   Delta X     New X
                                 (Linear)    (Quad)   (Total)
    R1        1.79695   0.00004   0.00000   0.00008   0.00009   1.79704
    R2        1.79695   0.00004   0.00000   0.00008   0.00009   1.79704
    A1        1.87963  -0.00001  -0.00009  -0.00002  -0.00011   1.87953
         Item               Value     Threshold  Converged?
 Maximum Force            0.000041     0.000450     YES
 RMS     Force            0.000034     0.000300     YES
 Maximum Displacement     0.000085     0.001800     YES
 RMS     Displacement     0.000062     0.001200     YES
 Predicted change in Energy=-4.219571D-09
 Optimization completed.
    -- Stationary point found.
                           ----------------------------
                           !   Optimized Parameters   !
                           ! (Angstroms and Degrees)  !
 --------------------------                            --------------------------
 ! Name  Definition              Value          Derivative Info.                !
 --------------------------------------------------------------------------------
 ! R1    R(1,2)                  0.9509         -DE/DX =    0.0                 !
 ! R2    R(1,3)                  0.9509         -DE/DX =    0.0                 !
 ! A1    A(2,1,3)              107.695          -DE/DX =    0.0                 !
 --------------------------------------------------------------------------------
 Lowest energy point so far.  Saving SCF results.
 GradGradGradGradGradGradGradGradGradGradGradGradGradGradGradGradGradGrad

 Largest change from initial coordinates is atom    2       0.049 Angstoms.
 Leave Link  103 at Mon May  8 14:39:50 2017, MaxMem=  2684354560 cpu:         0.0
 (Enter /tcghome/ygeorgi/fock/g09/l202.exe)
                          Input orientation:                          
 ---------------------------------------------------------------------
 Center     Atomic      Atomic             Coordinates (Angstroms)
 Number     Number       Type             X           Y           Z
 ---------------------------------------------------------------------
      1          8           0       99.803122  100.833561  101.232083
      2          1           0       99.329450  100.024448  101.073353
      3          1           0       99.162229  101.514792  101.403564
 ---------------------------------------------------------------------
                    Distance matrix (angstroms):
                    1          2          3
     1  O    0.000000
     2  H    0.950907   0.000000
     3  H    0.950907   1.535619   0.000000
 Symmetry turned off by external request.
 Stoichiometry    H2O
 Framework group  CS[SG(H2O)]
 Deg. of freedom     3
 Full point group                 CS      NOp   2
 Rotational constants (GHZ):    897.1405258    425.2995538    288.5223090
 Leave Link  202 at Mon May  8 14:39:50 2017, MaxMem=  2684354560 cpu:         0.0
 (Enter /tcghome/ygeorgi/fock/g09/l601.exe)
 Copying SCF densities to generalized density rwf, IOpCl= 0 IROHF=0.

 **********************************************************************

            Population analysis using the SCF density.

 **********************************************************************

 Alpha  occ. eigenvalues --   -1.35330  -0.64609  -0.53374  -0.45264
 Alpha virt. eigenvalues --    0.14919   0.19593
          Condensed to atoms (all electrons):
               1          2          3
     1  O    6.358551   0.000000   0.000000
     2  H    0.000000   0.820725   0.000000
     3  H    0.000000   0.000000   0.820725
 Mulliken charges:
               1
     1  O   -0.358551
     2  H    0.179275
     3  H    0.179275
 Sum of Mulliken charges =   0.00000
 Mulliken charges with hydrogens summed into heavy atoms:
               1
     1  O    0.000000
 Charge=              0.0000 electrons
 Dipole moment (field-independent basis, Debye):
    X=             -1.7271    Y=             -0.1982    Z=              0.0198  Tot=              1.7386
 N-N= 1.734520180921D+01 E-N=-2.303241778208D+01  KE=-5.856501336289D+00
 Leave Link  601 at Mon May  8 14:39:50 2017, MaxMem=  2684354560 cpu:         0.0
 (Enter /tcghome/ygeorgi/fock/g09/l9999.exe)
 1\1\GINC-COMPUTE-0-15\FOpt\RPM3\ZDO\H2O1\KECELIM\08-May-2017\0\\#P pm3
  opt nosym freq=anharmonic\\test pm3\\0,1\O,99.8031216789,100.83356079
 14,101.2320829028\H,99.3294497591,100.0244476553,101.0733534608\H,99.1
 62228562,101.5147915533,101.4035636365\\Version=EM64L-G09RevD.01\HF=-0
 .0850202\RMSD=1.814e-09\RMSF=2.785e-05\Dipole=-0.6794993,-0.0779642,0.
 0077738\PG=CS [SG(H2O1)]\\@


 KEEP CLOSE TO NATURES HEART, YOURSELF;
 AND BREAK CLEAR AWAY, ONCE IN A WHILE, AND
 CLIMB A MOUNTAIN OR SPEND A WEEK IN THE
 WOODS.  WASH YOUR SPIRIT CLEAN...
                                         -- JOHN MUIR
 Leave Link 9999 at Mon May  8 14:39:50 2017, MaxMem=  2684354560 cpu:         0.1
 Job cpu time:       0 days  0 hours  0 minutes  4.2 seconds.
 File lengths (MBytes):  RWF=      5 Int=      0 D2E=      0 Chk=      2 Scr=      1
 Normal termination of Gaussian 09 at Mon May  8 14:39:50 2017.
 (Enter /tcghome/ygeorgi/fock/g09/l1.exe)
 Link1:  Proceeding to internal job step number  2.
 -------------------------------------------------------------
 #P Geom=AllCheck Guess=TCheck SCRF=Check GenChk RPM3/ZDO Freq
 -------------------------------------------------------------
 1/10=4,29=7,30=1,38=21,40=1,80=1/1,6,3;
 2/12=2,15=1,40=1/2;
 3/5=2,14=-4,16=1,25=1,41=800000,70=2,71=2,116=1,135=40,140=1/1,2,3;
 4/5=101,35=1,69=2/1;
 5/5=2,35=1,96=-2,98=1/2;
 8/6=4,10=90,11=11/1;
 11/6=1,8=1,9=11,15=111,16=1,31=1/1,2,10;
 10/6=1,31=1,60=-2/2;
 6/7=2,8=2,9=2,10=2,28=1/1;
 7/10=1,25=1,30=1,71=2/1,2,3,16;
 1/38=20,80=1/6(3);
 7/8=1,25=2,30=1,44=-1,71=2/16,17;
 1/10=4,30=1,38=20,80=1/3;
 99/8=1000/99;
 3/5=2,14=-2,16=1,25=1,41=800000,70=5,71=2,116=1,135=20,140=1/1,2,3;
 4/5=5,16=3,35=1,69=2/1;
 5/5=2,35=1,38=5,96=-2,98=1/2;
 8/6=4,10=90,11=11/1;
 11/6=1,8=1,9=11,15=111,16=1,31=1/1,2,10;
 10/6=1,31=1,60=-2/2;
 6/7=2,8=2,9=2,10=2,28=1/1;
 7/7=1,10=1,25=1,30=1,71=1/1,2,3,16;
 1/38=20,80=1/6(-8);
 7/8=1,25=2,30=1,44=-1,71=1/16,17;
 1/10=4,30=1,38=20,80=1/3;
 99/8=1000/99;
 Leave Link    1 at Mon May  8 14:39:50 2017, MaxMem=  2684354560 cpu:         0.0
 (Enter /tcghome/ygeorgi/fock/g09/l101.exe)
 Structure from the checkpoint file:  "/s1/kecelim/Gau-30324.chk"
 --------
 test pm3
 --------
 Charge =  0 Multiplicity = 1
 Redundant internal coordinates found in file.
 O,0,99.8031216789,100.8335607914,101.2320829028
 H,0,99.3294497591,100.0244476553,101.0733534608
 H,0,99.162228562,101.5147915533,101.4035636365
 Recover connectivity data from disk.
 NAtoms=      3 NQM=        3 NQMF=       0 NMMI=      0 NMMIF=      0
                NMic=       0 NMicF=      0.
                    Isotopes and Nuclear Properties:
 (Nuclear quadrupole moments (NQMom) in fm**2, nuclear magnetic moments (NMagM)
  in nuclear magnetons)

  Atom         1           2           3
 IAtWgt=          16           1           1
 AtmWgt=  15.9949146   1.0078250   1.0078250
 NucSpn=           0           1           1
 AtZEff=  -6.0000000  -1.0000000  -1.0000000
 NQMom=    0.0000000   0.0000000   0.0000000
 NMagM=    0.0000000   2.7928460   2.7928460
 AtZNuc=   8.0000000   1.0000000   1.0000000
 Leave Link  101 at Mon May  8 14:39:51 2017, MaxMem=  2684354560 cpu:         0.9
 (Enter /tcghome/ygeorgi/fock/g09/l106.exe)
 Numerical evaluation of third derivatives.
 Nuclear step= 0.010000 Angstroms, electric field step= 0.000333 atomic units, NStep=1.
 Leave Link  106 at Mon May  8 14:39:51 2017, MaxMem=  2684354560 cpu:         0.0
 (Enter /tcghome/ygeorgi/fock/g09/l103.exe)

 GradGradGradGradGradGradGradGradGradGradGradGradGradGradGradGradGradGrad
 Berny optimization.
 Initialization pass.
                           ----------------------------
                           !    Initial Parameters    !
                           ! (Angstroms and Degrees)  !
 --------------------------                            --------------------------
 ! Name  Definition              Value          Derivative Info.                !
 --------------------------------------------------------------------------------
 ! R1    R(1,2)                  0.9509         calculate D2E/DX2 analytically  !
 ! R2    R(1,3)                  0.9509         calculate D2E/DX2 analytically  !
 ! A1    A(2,1,3)              107.695          calculate D2E/DX2 analytically  !
 --------------------------------------------------------------------------------
 Trust Radius=3.00D-01 FncErr=1.00D-07 GrdErr=1.00D-07
 Number of steps in this run=      2 maximum allowed number of steps=      2.
 GradGradGradGradGradGradGradGradGradGradGradGradGradGradGradGradGradGrad

 Leave Link  103 at Mon May  8 14:39:51 2017, MaxMem=  2684354560 cpu:         0.0
 (Enter /tcghome/ygeorgi/fock/g09/l202.exe)
                          Input orientation:                          
 ---------------------------------------------------------------------
 Center     Atomic      Atomic             Coordinates (Angstroms)
 Number     Number       Type             X           Y           Z
 ---------------------------------------------------------------------
      1          8           0       99.803122  100.833561  101.232083
      2          1           0       99.329450  100.024448  101.073353
      3          1           0       99.162229  101.514792  101.403564
 ---------------------------------------------------------------------
                    Distance matrix (angstroms):
                    1          2          3
     1  O    0.000000
     2  H    0.950907   0.000000
     3  H    0.950907   1.535619   0.000000
 Symmetry turned off by external request.
 Stoichiometry    H2O
 Framework group  CS[SG(H2O)]
 Deg. of freedom     3
 Full point group                 CS      NOp   2
 Rotational constants (GHZ):    897.1405258    425.2995538    288.5223090
 Leave Link  202 at Mon May  8 14:39:51 2017, MaxMem=  2684354560 cpu:         0.0
 (Enter /tcghome/ygeorgi/fock/g09/l301.exe)
 Standard basis: VSTO-6G (5D, 7F)
 Ernie: Thresh=  0.10000D-02 Tol=  0.10000D-05 Strict=F.
  NNHCO=     0 NNPyr=     0 NCTC=     0               EPep=         0.000000000
    EC=         5.031323945  ECS=         0.409738054   EG=         0.049164503
   EHC=         0.000000000  EAt=       -11.594002353  AtH=         0.260972954
 EPDDG=         0.000000000  ECC=         5.490226502 EAtT=        11.854975307
     6 basis functions,    36 primitive gaussians,     6 cartesian basis functions
     4 alpha electrons        4 beta electrons
       nuclear repulsion energy        17.3452018092 Hartrees.
 IExCor=    0 DFT=F Ex=HF Corr=None ExCW=0 ScaHFX=  1.000000
 ScaDFX=  1.000000  1.000000  1.000000  1.000000 ScalE2=  1.000000  1.000000
 IRadAn=      0 IRanWt=     -1 IRanGd=            0 ICorTp=0 IEmpDi=  4
 Integral buffers will be    131072 words long.
 Regular integral format.
 Two-electron integral symmetry is turned off.
 Leave Link  301 at Mon May  8 14:39:51 2017, MaxMem=  2684354560 cpu:         0.1
 (Enter /tcghome/ygeorgi/fock/g09/l302.exe)
 Do NDO integrals.
 NPDir=0 NMtPBC=     1 NCelOv=     1 NCel=       1 NClECP=     1 NCelD=      1
         NCelK=      1 NCelE2=     1 NClLst=     1 CellRange=     0.0.
 One-electron integrals computed using PRISM.
 NBasis=     6 RedAO= F EigKep=  0.00D+00  NBF=     6
 NBsUse=     6 1.00D-04 EigRej=  0.00D+00 NBFU=     6
 Leave Link  302 at Mon May  8 14:39:51 2017, MaxMem=  2684354560 cpu:         0.1
 (Enter /tcghome/ygeorgi/fock/g09/l303.exe)
 DipDrv:  MaxL=1.
 Leave Link  303 at Mon May  8 14:39:51 2017, MaxMem=  2684354560 cpu:         0.0
 (Enter /tcghome/ygeorgi/fock/g09/l401.exe)
 Initial guess from the checkpoint file:  "/s1/kecelim/Gau-30324.chk"
 B after Tr=     0.000000    0.000000    0.000000
         Rot=    1.000000    0.000000    0.000000    0.000000 Ang=   0.00 deg.
 Guess basis will be translated and rotated to current coordinates.
 JPrj=0 DoOrth=T DoCkMO=T.
 Leave Link  401 at Mon May  8 14:39:51 2017, MaxMem=  2684354560 cpu:         0.1
 (Enter /tcghome/ygeorgi/fock/g09/l502.exe)
 Closed shell SCF:
 Using DIIS extrapolation, IDIIS=  1040.
 Overlap will be assumed to be unity.
 Two-electron integral symmetry not used.
 Keep J ints in memory in canonical form, NReq=882349.
 IVT=       79022 IEndB=       79022 NGot=  2684354560 MDV=  2684275461
 LenX=  2684275461 LenY=  2684274579
 Requested convergence on RMS density matrix=1.00D-08 within 128 cycles.
 Requested convergence on MAX density matrix=1.00D-06.
 Requested convergence on             energy=1.00D-06.
 No special actions if energy rises.
 FoFCou: FMM=F IPFlag=           0 FMFlag=           0 FMFlg1=           0
         NFxFlg=           0 DoJE=F BraDBF=F KetDBF=F FulRan=T
         wScrn=  0.000000 ICntrl=     600 IOpCl=  2 I1Cent=           0 NGrid=           0
         NMat0=    1 NMatS0=     12 NMatT0=    0 NMatD0=    1 NMtDS0=    0 NMtDT0=    0
 Symmetry not used in FoFCou.

 Cycle   1  Pass 1  IDiag  1:
 E=-0.850201658386496E-01
 DIIS: error= 3.09D-10 at cycle   1 NSaved=   1.
 NSaved= 1 IEnMin= 1 EnMin=-0.850201658386496E-01 IErMin= 1 ErrMin= 3.09D-10
 ErrMax= 3.09D-10  0.00D+00 EMaxC= 1.00D-01 BMatC= 1.10D-18 BMatP= 1.10D-18
 IDIUse=1 WtCom= 1.00D+00 WtEn= 0.00D+00
 Coeff-Com:  0.100D+01
 Coeff:      0.100D+01
 RMSDP=3.40D-10 MaxDP=7.97D-10              OVMax= 0.00D+00

 Cycle   2  Pass 2  IDiag  1:
 SCF Done:  E(RPM3) = -0.850201658386E-01 A.U. after    2 cycles
            NFock=  1  Conv=0.34D-09     -V/T= 0.9855
 KE=-5.856501336211D+00 PE=-2.303241778215D+01 EE= 1.145869714331D+01
 Leave Link  502 at Mon May  8 14:39:51 2017, MaxMem=  2684354560 cpu:         0.0
 (Enter /tcghome/ygeorgi/fock/g09/l801.exe)
 Range of M.O.s used for correlation:     1     6
 NBasis=     6 NAE=     4 NBE=     4 NFC=     0 NFV=     0
 NROrb=      6 NOA=     4 NOB=     4 NVA=     2 NVB=     2
 Leave Link  801 at Mon May  8 14:39:52 2017, MaxMem=  2684354560 cpu:         0.0
 (Enter /tcghome/ygeorgi/fock/g09/l1101.exe)
 Using compressed storage, NAtomX=     3.
 Will process      4 centers per pass.
 Leave Link 1101 at Mon May  8 14:39:52 2017, MaxMem=  2684354560 cpu:         0.1
 (Enter /tcghome/ygeorgi/fock/g09/l1102.exe)
 Symmetrizing basis deriv contribution to polar:
 IMax=3 JMax=2 DiffMx= 0.00D+00
 Leave Link 1102 at Mon May  8 14:39:52 2017, MaxMem=  2684354560 cpu:         0.0
 (Enter /tcghome/ygeorgi/fock/g09/l1110.exe)
 Forming Gx(P) for the SCF density, NAtomX=     3.
 Integral derivatives from FoFJK, PRISM(SPDF).
 Do as many integral derivatives as possible in FoFJK.
 G2DrvN: MDV=    2684295541.
 G2DrvN: will do     4 centers at a time, making    1 passes.
 Calling FoFCou, ICntrl=  3107 FMM=F I1Cent=   0 AccDes= 0.00D+00.
 FoFJK:  IHMeth= 9 ICntrl=    3107 DoSepK=F KAlg= 0 I1Cent=   0 FoldK=F
 IRaf=         0 NMat=   1 IRICut=       1 DoRegI=T DoRafI=F ISym2E= 0.
 FoFCou: FMM=F IPFlag=           0 FMFlag=      100000 FMFlg1=           0
         NFxFlg=           0 DoJE=F BraDBF=F KetDBF=F FulRan=T
         wScrn=  0.000000 ICntrl=    3107 IOpCl=  0 I1Cent=           0 NGrid=           0
         NMat0=    1 NMatS0=      1 NMatT0=    0 NMatD0=    1 NMtDS0=    0 NMtDT0=    0
 Symmetry not used in FoFCou.
 End of G2Drv F.D. properties file   721 does not exist.
 End of G2Drv F.D. properties file   722 does not exist.
 End of G2Drv F.D. properties file   788 does not exist.
 Leave Link 1110 at Mon May  8 14:39:52 2017, MaxMem=  2684354560 cpu:         0.1
 (Enter /tcghome/ygeorgi/fock/g09/l1002.exe)
 Minotr:  Closed shell wavefunction.
          IDoAtm=111
          Direct CPHF calculation.
          Differentiating once with respect to electric field.
                with respect to dipole field.
          Differentiating once with respect to nuclear coordinates.
          Electric field/nuclear overlap derivatives assumed to be zero.
          Requested convergence is 1.0D-08 RMS, and 1.0D-07 maximum.
          NewPWx=T KeepS1=F KeepF1=F KeepIn=T MapXYZ=F SortEE=F KeepMc=T.
          MDV=    2684295629 using IRadAn=       1.
 Keep J ints in memory in canonical form, NReq=864531.
 FoFCou: FMM=F IPFlag=           0 FMFlag=           0 FMFlg1=           0
         NFxFlg=           0 DoJE=F BraDBF=F KetDBF=F FulRan=T
         wScrn=  0.000000 ICntrl=     600 IOpCl=  2 I1Cent=           0 NGrid=           0
         NMat0=    1 NMatS0=     12 NMatT0=    0 NMatD0=    1 NMtDS0=    0 NMtDT0=    0
 Symmetry not used in FoFCou.
          Solving linear equations separately, MaxMat=       0.
          There are    12 degrees of freedom in the 1st order CPHF.  IDoFFX=5 NUNeed=    12.
 LinEq1:  Iter=  0 NonCon=    12 RMS=3.83D-01 Max=7.66D-01 NDo=    12
 AX will form    12 AO Fock derivatives at one time.
 LinEq1:  Iter=  1 NonCon=    12 RMS=1.30D-02 Max=3.26D-02 NDo=    12
 LinEq1:  Iter=  2 NonCon=    12 RMS=1.62D-03 Max=3.32D-03 NDo=    12
 LinEq1:  Iter=  3 NonCon=    12 RMS=1.12D-04 Max=1.97D-04 NDo=    12
 LinEq1:  Iter=  4 NonCon=    12 RMS=3.86D-06 Max=5.61D-06 NDo=    12
 LinEq1:  Iter=  5 NonCon=    10 RMS=3.69D-07 Max=8.03D-07 NDo=    12
 LinEq1:  Iter=  6 NonCon=     0 RMS=7.09D-09 Max=1.70D-08 NDo=    12
 Linear equations converged to 1.000D-08 1.000D-07 after     6 iterations.
 FullF1:  Do perturbations    1 to     3.
 Isotropic polarizability for W=    0.000000        3.38 Bohr**3.
 End of Minotr F.D. properties file   721 does not exist.
 End of Minotr F.D. properties file   722 does not exist.
 End of Minotr F.D. properties file   788 does not exist.
 Leave Link 1002 at Mon May  8 14:39:52 2017, MaxMem=  2684354560 cpu:         0.1
 (Enter /tcghome/ygeorgi/fock/g09/l601.exe)
 Copying SCF densities to generalized density rwf, IOpCl= 0 IROHF=0.

 **********************************************************************

            Population analysis using the SCF density.

 **********************************************************************

 Alpha  occ. eigenvalues --   -1.35330  -0.64609  -0.53374  -0.45264
 Alpha virt. eigenvalues --    0.14919   0.19593
          Condensed to atoms (all electrons):
               1          2          3
     1  O    6.358551   0.000000   0.000000
     2  H    0.000000   0.820725   0.000000
     3  H    0.000000   0.000000   0.820725
 Mulliken charges:
               1
     1  O   -0.358551
     2  H    0.179275
     3  H    0.179275
 Sum of Mulliken charges =   0.00000
 Mulliken charges with hydrogens summed into heavy atoms:
               1
     1  O    0.000000
 APT charges:
               1
     1  O   -0.378128
     2  H    0.189064
     3  H    0.189064
 Sum of APT charges =   0.00000
 APT charges with hydrogens summed into heavy atoms:
               1
     1  O    0.000000
 Charge=              0.0000 electrons
 Dipole moment (field-independent basis, Debye):
    X=             -1.7271    Y=             -0.1982    Z=              0.0198  Tot=              1.7386
[...]
 Z(2)  (Angs)     101.073353      101.072628      101.072628
 X(3)  (Angs)      99.162229       99.152952       99.152953
 Y(3)  (Angs)     101.514792      101.517507      101.517507
 Z(3)  (Angs)     101.403564      101.404492      101.404492

 Internal coordinates for the Equilibrium structure (Se)
                           Interatomic distances:
                    1          2          3
     1  O    0.000000
     2  H    0.950907   0.000000
     3  H    0.950907   1.535619   0.000000
                           Interatomic angles:
       H2-O1-H3=107.695 

 Internal coordinates for the vibrationally average structure at 0K (Sz)
                           Interatomic distances:
                    1          2          3
     1  O    0.000000
     2  H    0.959952   0.000000
     3  H    0.959953   1.543309   0.000000
                           Interatomic angles:
       H2-O1-H3=106.998 

 Internal coordinates for the vibr. average structure at 298.15K (Sa)
                           Interatomic distances:
                    1          2          3
     1  O    0.000000
     2  H    0.959951   0.000000
     3  H    0.959952   1.543308   0.000000
                           Interatomic angles:
       H2-O1-H3=106.9981

     ==================================================
      Vibrational Average of Electric-Field Properties
     ==================================================

 Electric dipole
 ---------------
 ------------------------------------------------------------------------
  Property at reference geometry, Unit: Debye
 ------------------------------------------------------------------------
    X=    -1.7271    Y=    -0.1982    Z=     0.0198
 ------------------------------------------------------------------------
  Temperature:     0K, Unit: Debye
 ------------------------------------------------------------------------
    X=    -1.7347    Y=    -0.1990    Z=     0.0198
 ------------------------------------------------------------------------
  Temperature:   298K, Unit: Debye
 ------------------------------------------------------------------------
    X=    -1.7347    Y=    -0.1990    Z=     0.0198

     ==================================================
                     Resonance Analysis
     ==================================================

 Thresholds
 ----------
 Maximum Difference PT2 vs. Variational (cm-1) :      1.000
 Minimum value for Darling-Dennison term (cm-1):     10.000

 Fermi resonances
 ----------------
  No Fermi resonance found

 Darling-Dennison resonances
 ---------------------------
  No Darling-Dennison resonance found

     ==================================================
                     Anharmonic X Matrix
     ==================================================

 PT2 model: Deperturbed VPT2 (DVPT2)
 Ref.: V. Barone, J. Chem. Phys. 122, 1, 014108 (2005)

 Coriolis contributions to X Matrix (in cm^-1)
 ---------------------------------------------
                1             2             3
      1  0.000000D+00
      2  0.343246D-01  0.000000D+00
      3  0.000000D+00  0.281199D+02  0.000000D+00

 3rd Deriv. contributions to X Matrix (in cm^-1)
 -----------------------------------------------
                1             2             3
      1 -0.403662D+02
      2 -0.189163D+03 -0.511454D+02
      3  0.936335D+02  0.416217D+02 -0.241208D+02

 4th Deriv. contributions to X Matrix (in cm^-1)
 -----------------------------------------------
                1             2             3
      1 -0.173707D+01
      2  0.325766D+02  0.870177D+01
      3 -0.103824D+03 -0.738165D+02 -0.868190D+01

 Total Anharmonic X Matrix (in cm^-1)
 ------------------------------------
                1             2             3
      1 -0.421033D+02
      2 -0.156552D+03 -0.424436D+02
      3 -0.101909D+02 -0.407479D+01 -0.328027D+02

     ==================================================
                Anharmonic Zero Point Energy
     ==================================================

 Anharmonic Zero Point Energy
 ----------------------------
 Harmonic       : cm-1 =  4799.55576 ; Kcal/mol =  13.723 ; KJ/mol =  57.415
 Anharm.Pot.    : cm-1 =   -88.09463 ; Kcal/mol =  -0.252 ; KJ/mol =  -1.054
 Watson+Coriolis: cm-1 =   -11.66818 ; Kcal/mol =  -0.033 ; KJ/mol =  -0.140
 X0F (Im. Freq.): cm-1 =     0.00000 ; Kcal/mol =   0.000 ; KJ/mol =   0.000
 Total Anharm   : cm-1 =  4699.79294 ; Kcal/mol =  13.437 ; KJ/mol =  56.222

     ==================================================
          Vibrational Energies at Anharmonic Level
     ==================================================

 Vibrational Energies and Rotational Constants (in cm^-1)
 --------------------------------------------------------
 Mode(Quanta)      E(harm)     E(anharm)     Aa(z)       Ba(x)       Ca(y)
 Equilibrium Geometry                       29.924181   14.191833    9.619907
 Ground State       4799.556    4699.793     30.305534   14.360291    9.511838
 Fundamental Bands (DE w.r.t. Ground State)
   1(1) active      3988.715    3821.137    29.604860   14.397088    9.455646
   2(1) active      3868.322    3703.122    29.480696   14.351033    9.464520
   3(1) active      1742.074    1669.336    32.593753   14.669668    9.399209
 Overtones (DE w.r.t. Ground State)
   1(2)             7977.430    7558.068    28.904186   14.433885    9.399454
   2(2)             7736.644    7321.356    28.655859   14.341776    9.417202
   3(2)             3484.148    3273.066    34.881971   14.979045    9.286580
 Combination Bands (DE w.r.t. Ground State)
   2(1)    1(1)     7857.037    7367.707    28.780023   14.387830    9.408328
   3(1)    1(1)     5730.789    5480.282    31.893079   14.706465    9.343017
   3(1)    2(1)     5610.396    5368.383    31.768915   14.660410    9.351891

     ==================================================
      Thermodynamic properties and Partition Functions
     ==================================================

 ZPE(harm) = 0.57415D+02 kJ/mol        ZPE(anh)= 0.56222D+02 kJ/mol

 Input values of T(K) and P(atm): 298.15   1.00
                    Harmonic value     SPT anharmonic value
 Qvib               0.87369D-10          0.14141D-09
 QZvib              0.10002D+01          0.10003D+01
 Energy             0.64857D+02          0.63665D+02         kJ/mol
 Enthalpy           0.67336D+02          0.66144D+02         kJ/mol
 Entropy            0.19400D+03          0.19401D+03         J/(mol K)
 Sp.Heat(V)         0.25075D+02          0.25115D+02         J/(mol K)
 Sp.Heat(P)         0.33389D+02          0.33429D+02         J/(mol K)

 T =  298.15 K;  P =   1.00 atm
                    Harmonic value     SPT anharmonic value
 Qvib               0.87369D-10          0.14141D-09
 QZvib              0.10002D+01          0.10003D+01
 Energy             0.64857D+02          0.63665D+02         kJ/mol
 Enthalpy           0.67336D+02          0.66144D+02         kJ/mol
 Entropy            0.19400D+03          0.19401D+03         J/(mol K)
 Sp.Heat(V)         0.25075D+02          0.25115D+02         J/(mol K)
 Sp.Heat(P)         0.33389D+02          0.33429D+02         J/(mol K)

 T =  500.00 K;  P =   1.00 atm
                    Harmonic value     SPT anharmonic value
 Qvib               0.10113D-05          0.13497D-05
 QZvib              0.10067D+01          0.10083D+01
 Energy             0.70028D+02          0.68861D+02         kJ/mol
 Enthalpy           0.74185D+02          0.73018D+02         kJ/mol
 Entropy            0.21152D+03          0.21158D+03         J/(mol K)
 Sp.Heat(V)         0.26378D+02          0.26582D+02         J/(mol K)
 Sp.Heat(P)         0.34693D+02          0.34896D+02         J/(mol K)

 T = 1000.00 K;  P =   1.00 atm
                    Harmonic value     SPT anharmonic value
 Qvib               0.10990D-02          0.12836D-02
 QZvib              0.10965D+01          0.11095D+01
 Energy             0.84541D+02          0.83558D+02         kJ/mol
 Enthalpy           0.92856D+02          0.91872D+02         kJ/mol
 Entropy            0.23718D+03          0.23749D+03         J/(mol K)
 Sp.Heat(V)         0.31874D+02          0.32389D+02         J/(mol K)
 Sp.Heat(P)         0.40188D+02          0.40704D+02         J/(mol K)

 T = 1500.00 K;  P =   1.00 atm
                    Harmonic value     SPT anharmonic value
 Qvib               0.12926D-01          0.14585D-01
 QZvib              0.12906D+01          0.13234D+01
 Energy             0.10188D+03          0.10119D+03         kJ/mol
 Enthalpy           0.11435D+03          0.11366D+03         kJ/mol
 Entropy            0.25454D+03          0.25508D+03         J/(mol K)
 Sp.Heat(V)         0.37282D+02          0.37887D+02         J/(mol K)
 Sp.Heat(P)         0.45596D+02          0.46201D+02         J/(mol K)

 T = 2000.00 K;  P =   1.00 atm
                    Harmonic value     SPT anharmonic value
 Qvib               0.50077D-01          0.55876D-01
 QZvib              0.15818D+01          0.16427D+01
 Energy             0.12155D+03          0.12115D+03         kJ/mol
 Enthalpy           0.13818D+03          0.13778D+03         kJ/mol
 Entropy            0.26822D+03          0.26893D+03         J/(mol K)
 Sp.Heat(V)         0.41141D+02          0.41666D+02         J/(mol K)
 Sp.Heat(P)         0.49455D+02          0.49981D+02         J/(mol K)

     ==================================================
               Anharmonic Transition Moments
     ==================================================

 Electric dipole : Fundamental Bands
 ------------------------------------------------------------------------
  Mode(Quanta)             X                 Y                 Z
    1(1)                0.949581E-02      0.108977E-02     -0.109622E-03
    2(1)               -0.120809E-02      0.107627E-01      0.238479E-02
    3(1)                0.238536E-01      0.273669E-02     -0.271953E-03

 Electric dipole : Overtones
 ------------------------------------------------------------------------
  Mode(Quanta)             X                 Y                 Z
    1(2)                0.168367E-02      0.193170E-03     -0.192559E-04
    2(2)                0.469193E-03      0.538365E-04     -0.536470E-05
    3(2)                0.248505E-02      0.285201E-03     -0.281579E-04

 Electric dipole : Combination Bands
 ------------------------------------------------------------------------
  Mode(Quanta)             X                 Y                 Z
    2(1)    1(1)        0.385182E-04     -0.343752E-03     -0.761678E-04
    3(1)    1(1)        0.111486E-02      0.127968E-03     -0.127426E-04
    3(1)    2(1)       -0.242093E-03      0.215752E-02      0.478036E-03
 ERROR: Missing derivatives of the polarizability tensor moment.

     ==================================================
              Anharmonic Infrared Spectroscopy
     ==================================================

 Units: Energies (E) in cm^-1
        Integrated intensity (I) in km.mol^-1

 Fundamental Bands
 -----------------
    Mode(Quanta)       E(harm)   E(anharm)       I(harm)        I(anharm)
     1(1)              3988.715   3821.137      6.20546064      5.65396899
     2(1)              3868.322   3703.122      6.46972065      7.37509439
     3(1)              1742.074   1669.336     13.85917062     15.58627603

 Overtones
 ---------
    Mode(Quanta)       E(harm)   E(anharm)                      I(anharm)
     1(2)              7977.430   7558.068                      0.35157569
     2(2)              7736.644   7321.356                      0.02644777
     3(2)              3484.148   3273.066                      0.33168112

 Combination Bands
 -----------------
    Mode(Quanta)       E(harm)   E(anharm)                      I(anharm)
     2(1)     1(1)     7857.037   7367.707                      0.01496793
     3(1)     1(1)     5730.789   5480.282                      0.11177505
     3(1)     2(1)     5610.396   5368.383                      0.42964154

 Leave Link  717 at Mon May  8 14:40:01 2017, MaxMem=  2684354560 cpu:         0.0
 (Enter /tcghome/ygeorgi/fock/g09/l103.exe)

 GradGradGradGradGradGradGradGradGradGradGradGradGradGradGradGradGradGrad
 Berny optimization.
 Red2BG is reusing G-inverse.
 Internal  Forces:  Max     0.000041425 RMS     0.000034324
 Search for a local minimum.
 Step number   1 out of a maximum of    2
 All quantities printed in internal units (Hartrees-Bohrs-Radians)
 Second derivative matrix not updated -- analytic derivatives used.
 The second derivative matrix:
                          R1        R2        A1
           R1           0.55489
           R2           0.02750   0.55489
           A1           0.04578   0.04578   0.18015
 ITU=  0
     Eigenvalues ---    0.16998   0.52739   0.59256
 Angle between quadratic step and forces=  31.88 degrees.
 Linear search not attempted -- first point.
 Iteration  1 RMS(Cart)=  0.00005827 RMS(Int)=  0.00000000
 Iteration  2 RMS(Cart)=  0.00000000 RMS(Int)=  0.00000000
 ITry= 1 IFail=0 DXMaxC= 8.13D-05 DCOld= 1.00D+10 DXMaxT= 3.00D-01 DXLimC= 3.00D+00 Rises=F
 Variable       Old X    -DE/DX   Delta X   Delta X   Delta X     New X
                                 (Linear)    (Quad)   (Total)
    R1        1.79695   0.00004   0.00000   0.00008   0.00008   1.79703
    R2        1.79695   0.00004   0.00000   0.00008   0.00008   1.79703
    A1        1.87963  -0.00001   0.00000  -0.00011  -0.00011   1.87953
         Item               Value     Threshold  Converged?
 Maximum Force            0.000041     0.000450     YES
 RMS     Force            0.000034     0.000300     YES
 Maximum Displacement     0.000081     0.001800     YES
 RMS     Displacement     0.000058     0.001200     YES
 Predicted change in Energy=-3.870670D-09
 Optimization completed.
    -- Stationary point found.
                           ----------------------------
                           !   Optimized Parameters   !
                           ! (Angstroms and Degrees)  !
 --------------------------                            --------------------------
 ! Name  Definition              Value          Derivative Info.                !
 --------------------------------------------------------------------------------
 ! R1    R(1,2)                  0.9509         -DE/DX =    0.0                 !
 ! R2    R(1,3)                  0.9509         -DE/DX =    0.0                 !
 ! A1    A(2,1,3)              107.695          -DE/DX =    0.0                 !
 --------------------------------------------------------------------------------
 GradGradGradGradGradGradGradGradGradGradGradGradGradGradGradGradGradGrad

 Leave Link  103 at Mon May  8 14:40:01 2017, MaxMem=  2684354560 cpu:         0.1
 (Enter /tcghome/ygeorgi/fock/g09/l9999.exe)
 1\1\GINC-COMPUTE-0-15\Freq\RPM3\ZDO\H2O1\KECELIM\08-May-2017\0\\#P Geo
 m=AllCheck Guess=TCheck SCRF=Check GenChk RPM3/ZDO Freq\\test pm3\\0,1
 \O,99.8031216789,100.8335607914,101.2320829028\H,99.3294497591,100.024
 4476553,101.0733534608\H,99.162228562,101.5147915533,101.4035636365\\V
 ersion=EM64L-G09RevD.01\HF=-0.0850202\RMSD=3.398e-10\RMSF=2.785e-05\Ze
 roPoint=0.0218684\Thermal=0.0247027\Dipole=-0.6794993,-0.0779642,0.007
 7738\DipoleDeriv=-0.1936966,0.0145617,-0.0132661,0.0145618,-0.3116049,
 0.0720279,-0.0132661,0.0720279,-0.6290826,0.1103003,-0.1298644,-0.0205
 165,-0.003045,0.1420464,-0.0391598,0.0070648,-0.0345443,0.3148453,0.08
 3396,0.1153029,0.0337824,-0.011517,0.1695586,-0.0328681,0.0062014,-0.0
 374835,0.3142373\Polar=3.3551998,-0.3101219,6.1514965,-0.1769302,1.273
 689,0.6303364\HyperPolar=-6.1906789,2.0026245,-11.686225,-4.1109869,0.
 6037247,-2.4470637,-0.4296025,-1.3385024,-0.0963563,0.0457114\PG=CS [S
 G(H2O1)]\NImag=0\\0.45595515,-0.02129460,0.65360603,-0.02122735,0.1429
 3525,0.03180275,-0.17821332,-0.22897933,-0.04331226,0.15755623,-0.1875
 3678,-0.37769195,-0.07532241,0.19929164,0.43545176,-0.03429915,-0.0738
 1414,-0.01477703,0.03760747,0.08745556,0.01762719,-0.27774170,0.250273
 99,0.06453939,0.02065703,-0.01175489,-0.00330820,0.25708461,0.20883155
 ,-0.27591411,-0.06761285,0.02968757,-0.05775980,-0.01364140,-0.2385191
 6,0.33367393,0.05552642,-0.06912113,-0.01702572,0.00570483,-0.01213315
 ,-0.00285016,-0.06123113,0.08125427,0.01987588\\-0.00005870,-0.0000070
 6,0.00000060,0.00002627,0.00003212,0.00000603,0.00003244,-0.00002506,-
 0.00000663\\-0.24432568,-0.07691815,0.42962412,-0.01229943,0.12290588,
 -0.09545555,0.12030576,0.03824639,0.00617133,-0.12031718,0.05501692,-0
 .21291269,-0.06164245,-0.04848177,0.22814563,0.00981851,-0.06103210,0.
 04768580,-0.00673574,0.05479071,-0.00351126,0.12402070,0.03867169,0.00
 612863,0.00001112,-0.00653522,-0.00308305,-0.12403229,0.02190061,-0.21
 671181,-0.06126350,0.01023569,-0.01523279,0.00624141,-0.03213616,0.231
 94482,0.00248106,-0.06187384,0.04776972,0.00056433,0.00685182,-0.04417
 453,-0.00304562,0.05502208,-0.00359520,-0.26425228,1.16237071,0.270195
 70,0.26241398,0.01645843,-0.00596507,-0.14157450,-0.54507850,-0.105564
 20,0.14389849,-0.54508034,-0.73741331,-0.18732111,0.53485699,0.7350385
 0,-0.10556385,-0.18732454,0.17821641,0.10325606,0.18717610,-0.17816348
 ,0.40582680,-0.61729189,-0.15684973,-0.00232416,0.01022311,0.00230781,
 -0.40350249,-0.61729343,0.46721763,0.17086261,0.01022320,0.00237594,0.
 00014485,0.60707016,-0.46959470,-0.15685007,0.17086613,-0.17225134,0.0
 0230812,0.00014498,-0.00005288,0.15454189,-0.17100743,0.17230418,0.499
 93615,-0.07297171,1.16254927,-0.04882137,0.34367239,-0.32894699,-0.121
 46517,-0.54670226,-0.10709928,0.10062975,-0.51089160,-0.71269483,-0.18
 049734,0.52926392,0.68780351,-0.09931115,-0.17919410,0.16737976,0.1032
 1979,0.17946805,-0.19069527,-0.37847122,0.61967386,0.15592078,0.020835
 62,-0.01837234,-0.00390871,0.35763565,0.58386321,-0.44985464,-0.163175
 06,0.01743844,0.02489143,-0.00027396,-0.60130153,0.42496330,0.14813253
 ,-0.16447834,0.16156722,0.00387950,0.00102933,0.02331552,-0.15201208,0
 .16344901,-0.18488274,-0.57142944,-0.01846943,-0.42167396,0.01650696,-
 0.08939560,-0.02757796,0.20661277,0.40446723,0.08058475,-0.14781032,0.
 30995685,0.29173137,0.05134732,-0.32368044,-0.52733496,0.06002879,0.04
 790673,0.01200240,-0.06399966,-0.10896468,0.00648957,0.36482048,-0.385
 99599,-0.09708598,-0.05880150,0.01372124,0.00396780,-0.30602375,-0.291
 49206,0.12994131,0.03804940,-0.08078491,0.23560419,0.06105723,0.372277
 52,-0.36554484,-0.07653394,0.04148887,0.01557549,-0.01658627,0.0576177
 6,-0.01849183,0.09311754,-0.09910703,0.00291629,-0.23739914,-0.0468309
 4,0.19406627,-0.04604417,0.31300358,-1.16710132,0.24770607,-0.54179273
 ,-0.10458423,-0.23616327,-0.54675827,-0.22901288,-0.16438027,0.5452494
 7,0.23317909,-0.10543969,-0.16452940,0.58646045,0.10466171,0.16540956,
 -0.58645400,-0.01030526,0.58859729,0.15062009,-0.01157490,0.00152094,0
 .00076047,0.02191060,0.59329348,0.03495037,-0.14858083,-0.00325602,-0.
 00419786,-0.00084982,-0.59002321,-0.03072461,0.15193877,-0.14839328,0.
 58064144,-0.00027869,-0.00102145,0.00000512,-0.15163426,0.14934191,-0.
 58065871,-0.31418011,-0.05930808,0.22652714,-0.04284741,0.29872194,-1.
 07056374,0.27973558,-0.51637504,-0.10179075,-0.27734622,-0.50327406,-0
 .23867774,-0.15724504,0.56498546,-0.24384200,-0.09894182,-0.15676852,0
 .53807177,0.11173629,0.05328659,-0.57587957,0.03444438,0.57568408,0.14
 463884,-0.00238846,-0.06171198,-0.01279471,-0.03205666,0.56258205,0.01
 215083,-0.14147618,-0.04861146,0.48251938,0.10348172,-0.51397099,-0.49
 467008,0.14178928,-0.14195332,0.53249198,-0.00994580,0.10395837,0.0378
 0779,-0.13184392,0.03799443,-0.57029978\\@


 THOSE WHO TRY TO PASS CHEMISTRY OFF AS A NEW SCIENCE
 SHOW HOW LITTLE KNOWLEDGE THEY HAVE OF THE CHARACTER
 AND LITERATURE OF THE ANCIENTS.
   -- NICOLAS LEFEVRE
 "COURS DE CHYMIE" J.-N.LELOUP, PARIS, 1751
 Job cpu time:       0 days  0 hours  0 minutes 10.1 seconds.
 File lengths (MBytes):  RWF=     43 Int=      0 D2E=      0 Chk=     38 Scr=      1
 Normal termination of Gaussian 09 at Mon May  8 14:40:01 2017.
